+ 0.2 0 1 cbr 210 ------- 0 0.0 2.0 0 0
- 0.2 0 1 cbr 210 ------- 0 0.0 2.0 0 0
+ 0.2105 0 1 cbr 210 ------- 0 0.0 2.0 1 1
- 0.2105 0 1 cbr 210 ------- 0 0.0 2.0 1 1
+ 0.221 0 1 cbr 210 ------- 0 0.0 2.0 2 2
- 0.221 0 1 cbr 210 ------- 0 0.0 2.0 2 2
+ 0.2315 0 1 cbr 210 ------- 0 0.0 2.0 3 3
- 0.2315 0 1 cbr 210 ------- 0 0.0 2.0 3 3
+ 0.242 0 1 cbr 210 ------- 0 0.0 2.0 4 4
- 0.242 0 1 cbr 210 ------- 0 0.0 2.0 4 4
r 0.25168 0 1 cbr 210 ------- 0 0.0 2.0 0 0
+ 0.25168 1 2 cbr 210 ------- 0 0.0 2.0 0 0
- 0.25168 1 2 cbr 210 ------- 0 0.0 2.0 0 0
+ 0.2525 0 1 cbr 210 ------- 0 0.0 2.0 5 5
- 0.2525 0 1 cbr 210 ------- 0 0.0 2.0 5 5
r 0.26218 0 1 cbr 210 ------- 0 0.0 2.0 1 1
+ 0.26218 1 2 cbr 210 ------- 0 0.0 2.0 1 1
+ 0.263 0 1 cbr 210 ------- 0 0.0 2.0 6 6
- 0.263 0 1 cbr 210 ------- 0 0.0 2.0 6 6
- 0.26848 1 2 cbr 210 ------- 0 0.0 2.0 1 1
r 0.27268 0 1 cbr 210 ------- 0 0.0 2.0 2 2
+ 0.27268 1 2 cbr 210 ------- 0 0.0 2.0 2 2
r 0.27348 1 2 cbr 210 ------- 0 0.0 2.0 0 0
+ 0.2735 0 1 cbr 210 ------- 0 0.0 2.0 7 7
- 0.2735 0 1 cbr 210 ------- 0 0.0 2.0 7 7
r 0.28318 0 1 cbr 210 ------- 0 0.0 2.0 3 3
+ 0.28318 1 2 cbr 210 ------- 0 0.0 2.0 3 3
+ 0.284 0 1 cbr 210 ------- 0 0.0 2.0 8 8
- 0.284 0 1 cbr 210 ------- 0 0.0 2.0 8 8
- 0.28528 1 2 cbr 210 ------- 0 0.0 2.0 2 2
r 0.29028 1 2 cbr 210 ------- 0 0.0 2.0 1 1
r 0.29368 0 1 cbr 210 ------- 0 0.0 2.0 4 4
+ 0.29368 1 2 cbr 210 ------- 0 0.0 2.0 4 4
+ 0.2945 0 1 cbr 210 ------- 0 0.0 2.0 9 9
- 0.2945 0 1 cbr 210 ------- 0 0.0 2.0 9 9
- 0.30208 1 2 cbr 210 ------- 0 0.0 2.0 3 3
r 0.30418 0 1 cbr 210 ------- 0 0.0 2.0 5 5
+ 0.30418 1 2 cbr 210 ------- 0 0.0 2.0 5 5
+ 0.305 0 1 cbr 210 ------- 0 0.0 2.0 10 10
- 0.305 0 1 cbr 210 ------- 0 0.0 2.0 10 10
r 0.30708 1 2 cbr 210 ------- 0 0.0 2.0 2 2
r 0.31468 0 1 cbr 210 ------- 0 0.0 2.0 6 6
+ 0.31468 1 2 cbr 210 ------- 0 0.0 2.0 6 6
+ 0.3155 0 1 cbr 210 ------- 0 0.0 2.0 11 11
- 0.3155 0 1 cbr 210 ------- 0 0.0 2.0 11 11
- 0.31888 1 2 cbr 210 ------- 0 0.0 2.0 4 4
r 0.32388 1 2 cbr 210 ------- 0 0.0 2.0 3 3
r 0.32518 0 1 cbr 210 ------- 0 0.0 2.0 7 7
+ 0.32518 1 2 cbr 210 ------- 0 0.0 2.0 7 7
+ 0.326 0 1 cbr 210 ------- 0 0.0 2.0 12 12
- 0.326 0 1 cbr 210 ------- 0 0.0 2.0 12 12
- 0.33568 1 2 cbr 210 ------- 0 0.0 2.0 5 5
r 0.33568 0 1 cbr 210 ------- 0 0.0 2.0 8 8
+ 0.33568 1 2 cbr 210 ------- 0 0.0 2.0 8 8
+ 0.3365 0 1 cbr 210 ------- 0 0.0 2.0 13 13
- 0.3365 0 1 cbr 210 ------- 0 0.0 2.0 13 13
r 0.34068 1 2 cbr 210 ------- 0 0.0 2.0 4 4
r 0.34618 0 1 cbr 210 ------- 0 0.0 2.0 9 9
+ 0.34618 1 2 cbr 210 ------- 0 0.0 2.0 9 9
+ 0.347 0 1 cbr 210 ------- 0 0.0 2.0 14 14
- 0.347 0 1 cbr 210 ------- 0 0.0 2.0 14 14
- 0.35248 1 2 cbr 210 ------- 0 0.0 2.0 6 6
r 0.35668 0 1 cbr 210 ------- 0 0.0 2.0 10 10
+ 0.35668 1 2 cbr 210 ------- 0 0.0 2.0 10 10
r 0.35748 1 2 cbr 210 ------- 0 0.0 2.0 5 5
+ 0.3575 0 1 cbr 210 ------- 0 0.0 2.0 15 15
- 0.3575 0 1 cbr 210 ------- 0 0.0 2.0 15 15
r 0.36718 0 1 cbr 210 ------- 0 0.0 2.0 11 11
+ 0.36718 1 2 cbr 210 ------- 0 0.0 2.0 11 11
+ 0.368 0 1 cbr 210 ------- 0 0.0 2.0 16 16
- 0.368 0 1 cbr 210 ------- 0 0.0 2.0 16 16
- 0.36928 1 2 cbr 210 ------- 0 0.0 2.0 7 7
r 0.37428 1 2 cbr 210 ------- 0 0.0 2.0 6 6
r 0.37768 0 1 cbr 210 ------- 0 0.0 2.0 12 12
+ 0.37768 1 2 cbr 210 ------- 0 0.0 2.0 12 12
+ 0.3785 0 1 cbr 210 ------- 0 0.0 2.0 17 17
- 0.3785 0 1 cbr 210 ------- 0 0.0 2.0 17 17
- 0.38608 1 2 cbr 210 ------- 0 0.0 2.0 8 8
r 0.38818 0 1 cbr 210 ------- 0 0.0 2.0 13 13
+ 0.38818 1 2 cbr 210 ------- 0 0.0 2.0 13 13
+ 0.389 0 1 cbr 210 ------- 0 0.0 2.0 18 18
- 0.389 0 1 cbr 210 ------- 0 0.0 2.0 18 18
r 0.39108 1 2 cbr 210 ------- 0 0.0 2.0 7 7
r 0.39868 0 1 cbr 210 ------- 0 0.0 2.0 14 14
+ 0.39868 1 2 cbr 210 ------- 0 0.0 2.0 14 14
+ 0.3995 0 1 cbr 210 ------- 0 0.0 2.0 19 19
- 0.3995 0 1 cbr 210 ------- 0 0.0 2.0 19 19
- 0.40288 1 2 cbr 210 ------- 0 0.0 2.0 9 9
r 0.40788 1 2 cbr 210 ------- 0 0.0 2.0 8 8
r 0.40918 0 1 cbr 210 ------- 0 0.0 2.0 15 15
+ 0.40918 1 2 cbr 210 ------- 0 0.0 2.0 15 15
+ 0.41 0 1 cbr 210 ------- 0 0.0 2.0 20 20
- 0.41 0 1 cbr 210 ------- 0 0.0 2.0 20 20
- 0.41968 1 2 cbr 210 ------- 0 0.0 2.0 10 10
r 0.41968 0 1 cbr 210 ------- 0 0.0 2.0 16 16
+ 0.41968 1 2 cbr 210 ------- 0 0.0 2.0 16 16
+ 0.4205 0 1 cbr 210 ------- 0 0.0 2.0 21 21
- 0.4205 0 1 cbr 210 ------- 0 0.0 2.0 21 21
r 0.42468 1 2 cbr 210 ------- 0 0.0 2.0 9 9
r 0.43018 0 1 cbr 210 ------- 0 0.0 2.0 17 17
+ 0.43018 1 2 cbr 210 ------- 0 0.0 2.0 17 17
+ 0.431 0 1 cbr 210 ------- 0 0.0 2.0 22 22
- 0.431 0 1 cbr 210 ------- 0 0.0 2.0 22 22
- 0.43648 1 2 cbr 210 ------- 0 0.0 2.0 11 11
r 0.44068 0 1 cbr 210 ------- 0 0.0 2.0 18 18
+ 0.44068 1 2 cbr 210 ------- 0 0.0 2.0 18 18
r 0.44148 1 2 cbr 210 ------- 0 0.0 2.0 10 10
+ 0.4415 0 1 cbr 210 ------- 0 0.0 2.0 23 23
- 0.4415 0 1 cbr 210 ------- 0 0.0 2.0 23 23
r 0.45118 0 1 cbr 210 ------- 0 0.0 2.0 19 19
+ 0.45118 1 2 cbr 210 ------- 0 0.0 2.0 19 19
+ 0.452 0 1 cbr 210 ------- 0 0.0 2.0 24 24
- 0.452 0 1 cbr 210 ------- 0 0.0 2.0 24 24
- 0.45328 1 2 cbr 210 ------- 0 0.0 2.0 12 12
r 0.45828 1 2 cbr 210 ------- 0 0.0 2.0 11 11
r 0.46168 0 1 cbr 210 ------- 0 0.0 2.0 20 20
+ 0.46168 1 2 cbr 210 ------- 0 0.0 2.0 20 20
+ 0.4625 0 1 cbr 210 ------- 0 0.0 2.0 25 25
- 0.4625 0 1 cbr 210 ------- 0 0.0 2.0 25 25
- 0.47008 1 2 cbr 210 ------- 0 0.0 2.0 13 13
r 0.47218 0 1 cbr 210 ------- 0 0.0 2.0 21 21
+ 0.47218 1 2 cbr 210 ------- 0 0.0 2.0 21 21
+ 0.473 0 1 cbr 210 ------- 0 0.0 2.0 26 26
- 0.473 0 1 cbr 210 ------- 0 0.0 2.0 26 26
r 0.47508 1 2 cbr 210 ------- 0 0.0 2.0 12 12
r 0.48268 0 1 cbr 210 ------- 0 0.0 2.0 22 22
+ 0.48268 1 2 cbr 210 ------- 0 0.0 2.0 22 22
+ 0.4835 0 1 cbr 210 ------- 0 0.0 2.0 27 27
- 0.4835 0 1 cbr 210 ------- 0 0.0 2.0 27 27
- 0.48688 1 2 cbr 210 ------- 0 0.0 2.0 14 14
r 0.49188 1 2 cbr 210 ------- 0 0.0 2.0 13 13
r 0.49318 0 1 cbr 210 ------- 0 0.0 2.0 23 23
+ 0.49318 1 2 cbr 210 ------- 0 0.0 2.0 23 23
+ 0.494 0 1 cbr 210 ------- 0 0.0 2.0 28 28
- 0.494 0 1 cbr 210 ------- 0 0.0 2.0 28 28
- 0.50368 1 2 cbr 210 ------- 0 0.0 2.0 15 15
r 0.50368 0 1 cbr 210 ------- 0 0.0 2.0 24 24
+ 0.50368 1 2 cbr 210 ------- 0 0.0 2.0 24 24
+ 0.5045 0 1 cbr 210 ------- 0 0.0 2.0 29 29
- 0.5045 0 1 cbr 210 ------- 0 0.0 2.0 29 29
r 0.50868 1 2 cbr 210 ------- 0 0.0 2.0 14 14
r 0.51418 0 1 cbr 210 ------- 0 0.0 2.0 25 25
+ 0.51418 1 2 cbr 210 ------- 0 0.0 2.0 25 25
d 0.51418 1 2 cbr 210 ------- 0 0.0 2.0 25 25
+ 0.515 0 1 cbr 210 ------- 0 0.0 2.0 30 30
- 0.515 0 1 cbr 210 ------- 0 0.0 2.0 30 30
- 0.52048 1 2 cbr 210 ------- 0 0.0 2.0 16 16
r 0.52468 0 1 cbr 210 ------- 0 0.0 2.0 26 26
+ 0.52468 1 2 cbr 210 ------- 0 0.0 2.0 26 26
r 0.52548 1 2 cbr 210 ------- 0 0.0 2.0 15 15
+ 0.5255 0 1 cbr 210 ------- 0 0.0 2.0 31 31
- 0.5255 0 1 cbr 210 ------- 0 0.0 2.0 31 31
r 0.53518 0 1 cbr 210 ------- 0 0.0 2.0 27 27
+ 0.53518 1 2 cbr 210 ------- 0 0.0 2.0 27 27
d 0.53518 1 2 cbr 210 ------- 0 0.0 2.0 27 27
+ 0.536 0 1 cbr 210 ------- 0 0.0 2.0 32 32
- 0.536 0 1 cbr 210 ------- 0 0.0 2.0 32 32
- 0.53728 1 2 cbr 210 ------- 0 0.0 2.0 17 17
r 0.54228 1 2 cbr 210 ------- 0 0.0 2.0 16 16
r 0.54568 0 1 cbr 210 ------- 0 0.0 2.0 28 28
+ 0.54568 1 2 cbr 210 ------- 0 0.0 2.0 28 28
+ 0.5465 0 1 cbr 210 ------- 0 0.0 2.0 33 33
- 0.5465 0 1 cbr 210 ------- 0 0.0 2.0 33 33
- 0.55408 1 2 cbr 210 ------- 0 0.0 2.0 18 18
r 0.55618 0 1 cbr 210 ------- 0 0.0 2.0 29 29
+ 0.55618 1 2 cbr 210 ------- 0 0.0 2.0 29 29
+ 0.557 0 1 cbr 210 ------- 0 0.0 2.0 34 34
- 0.557 0 1 cbr 210 ------- 0 0.0 2.0 34 34
r 0.55908 1 2 cbr 210 ------- 0 0.0 2.0 17 17
r 0.56668 0 1 cbr 210 ------- 0 0.0 2.0 30 30
+ 0.56668 1 2 cbr 210 ------- 0 0.0 2.0 30 30
d 0.56668 1 2 cbr 210 ------- 0 0.0 2.0 30 30
+ 0.5675 0 1 cbr 210 ------- 0 0.0 2.0 35 35
- 0.5675 0 1 cbr 210 ------- 0 0.0 2.0 35 35
- 0.57088 1 2 cbr 210 ------- 0 0.0 2.0 19 19
r 0.57588 1 2 cbr 210 ------- 0 0.0 2.0 18 18
r 0.57718 0 1 cbr 210 ------- 0 0.0 2.0 31 31
+ 0.57718 1 2 cbr 210 ------- 0 0.0 2.0 31 31
+ 0.578 0 1 cbr 210 ------- 0 0.0 2.0 36 36
- 0.578 0 1 cbr 210 ------- 0 0.0 2.0 36 36
- 0.58768 1 2 cbr 210 ------- 0 0.0 2.0 20 20
r 0.58768 0 1 cbr 210 ------- 0 0.0 2.0 32 32
+ 0.58768 1 2 cbr 210 ------- 0 0.0 2.0 32 32
+ 0.5885 0 1 cbr 210 ------- 0 0.0 2.0 37 37
- 0.5885 0 1 cbr 210 ------- 0 0.0 2.0 37 37
r 0.59268 1 2 cbr 210 ------- 0 0.0 2.0 19 19
r 0.59818 0 1 cbr 210 ------- 0 0.0 2.0 33 33
+ 0.59818 1 2 cbr 210 ------- 0 0.0 2.0 33 33
d 0.59818 1 2 cbr 210 ------- 0 0.0 2.0 33 33
+ 0.599 0 1 cbr 210 ------- 0 0.0 2.0 38 38
- 0.599 0 1 cbr 210 ------- 0 0.0 2.0 38 38
- 0.60448 1 2 cbr 210 ------- 0 0.0 2.0 21 21
r 0.60868 0 1 cbr 210 ------- 0 0.0 2.0 34 34
+ 0.60868 1 2 cbr 210 ------- 0 0.0 2.0 34 34
r 0.60948 1 2 cbr 210 ------- 0 0.0 2.0 20 20
+ 0.6095 0 1 cbr 210 ------- 0 0.0 2.0 39 39
- 0.6095 0 1 cbr 210 ------- 0 0.0 2.0 39 39
r 0.61918 0 1 cbr 210 ------- 0 0.0 2.0 35 35
+ 0.61918 1 2 cbr 210 ------- 0 0.0 2.0 35 35
d 0.61918 1 2 cbr 210 ------- 0 0.0 2.0 35 35
+ 0.62 0 1 cbr 210 ------- 0 0.0 2.0 40 40
- 0.62 0 1 cbr 210 ------- 0 0.0 2.0 40 40
- 0.62128 1 2 cbr 210 ------- 0 0.0 2.0 22 22
r 0.62628 1 2 cbr 210 ------- 0 0.0 2.0 21 21
r 0.62968 0 1 cbr 210 ------- 0 0.0 2.0 36 36
+ 0.62968 1 2 cbr 210 ------- 0 0.0 2.0 36 36
+ 0.6305 0 1 cbr 210 ------- 0 0.0 2.0 41 41
- 0.6305 0 1 cbr 210 ------- 0 0.0 2.0 41 41
- 0.63808 1 2 cbr 210 ------- 0 0.0 2.0 23 23
r 0.64018 0 1 cbr 210 ------- 0 0.0 2.0 37 37
+ 0.64018 1 2 cbr 210 ------- 0 0.0 2.0 37 37
+ 0.641 0 1 cbr 210 ------- 0 0.0 2.0 42 42
- 0.641 0 1 cbr 210 ------- 0 0.0 2.0 42 42
r 0.64308 1 2 cbr 210 ------- 0 0.0 2.0 22 22
r 0.65068 0 1 cbr 210 ------- 0 0.0 2.0 38 38
+ 0.65068 1 2 cbr 210 ------- 0 0.0 2.0 38 38
d 0.65068 1 2 cbr 210 ------- 0 0.0 2.0 38 38
+ 0.6515 0 1 cbr 210 ------- 0 0.0 2.0 43 43
- 0.6515 0 1 cbr 210 ------- 0 0.0 2.0 43 43
- 0.65488 1 2 cbr 210 ------- 0 0.0 2.0 24 24
r 0.65988 1 2 cbr 210 ------- 0 0.0 2.0 23 23
r 0.66118 0 1 cbr 210 ------- 0 0.0 2.0 39 39
+ 0.66118 1 2 cbr 210 ------- 0 0.0 2.0 39 39
+ 0.662 0 1 cbr 210 ------- 0 0.0 2.0 44 44
- 0.662 0 1 cbr 210 ------- 0 0.0 2.0 44 44
r 0.67168 0 1 cbr 210 ------- 0 0.0 2.0 40 40
+ 0.67168 1 2 cbr 210 ------- 0 0.0 2.0 40 40
d 0.67168 1 2 cbr 210 ------- 0 0.0 2.0 40 40
- 0.67168 1 2 cbr 210 ------- 0 0.0 2.0 26 26
+ 0.6725 0 1 cbr 210 ------- 0 0.0 2.0 45 45
- 0.6725 0 1 cbr 210 ------- 0 0.0 2.0 45 45
r 0.67668 1 2 cbr 210 ------- 0 0.0 2.0 24 24
r 0.68218 0 1 cbr 210 ------- 0 0.0 2.0 41 41
+ 0.68218 1 2 cbr 210 ------- 0 0.0 2.0 41 41
+ 0.683 0 1 cbr 210 ------- 0 0.0 2.0 46 46
- 0.683 0 1 cbr 210 ------- 0 0.0 2.0 46 46
- 0.68848 1 2 cbr 210 ------- 0 0.0 2.0 28 28
r 0.69268 0 1 cbr 210 ------- 0 0.0 2.0 42 42
+ 0.69268 1 2 cbr 210 ------- 0 0.0 2.0 42 42
r 0.69348 1 2 cbr 210 ------- 0 0.0 2.0 26 26
+ 0.6935 0 1 cbr 210 ------- 0 0.0 2.0 47 47
- 0.6935 0 1 cbr 210 ------- 0 0.0 2.0 47 47
r 0.70318 0 1 cbr 210 ------- 0 0.0 2.0 43 43
+ 0.70318 1 2 cbr 210 ------- 0 0.0 2.0 43 43
d 0.70318 1 2 cbr 210 ------- 0 0.0 2.0 43 43
+ 0.704 0 1 cbr 210 ------- 0 0.0 2.0 48 48
- 0.704 0 1 cbr 210 ------- 0 0.0 2.0 48 48
- 0.70528 1 2 cbr 210 ------- 0 0.0 2.0 29 29
r 0.71028 1 2 cbr 210 ------- 0 0.0 2.0 28 28
r 0.71368 0 1 cbr 210 ------- 0 0.0 2.0 44 44
+ 0.71368 1 2 cbr 210 ------- 0 0.0 2.0 44 44
+ 0.7145 0 1 cbr 210 ------- 0 0.0 2.0 49 49
- 0.7145 0 1 cbr 210 ------- 0 0.0 2.0 49 49
- 0.72208 1 2 cbr 210 ------- 0 0.0 2.0 31 31
r 0.72418 0 1 cbr 210 ------- 0 0.0 2.0 45 45
+ 0.72418 1 2 cbr 210 ------- 0 0.0 2.0 45 45
+ 0.725 0 1 cbr 210 ------- 0 0.0 2.0 50 50
- 0.725 0 1 cbr 210 ------- 0 0.0 2.0 50 50
r 0.72708 1 2 cbr 210 ------- 0 0.0 2.0 29 29
r 0.73468 0 1 cbr 210 ------- 0 0.0 2.0 46 46
+ 0.73468 1 2 cbr 210 ------- 0 0.0 2.0 46 46
d 0.73468 1 2 cbr 210 ------- 0 0.0 2.0 46 46
+ 0.7355 0 1 cbr 210 ------- 0 0.0 2.0 51 51
- 0.7355 0 1 cbr 210 ------- 0 0.0 2.0 51 51
- 0.73888 1 2 cbr 210 ------- 0 0.0 2.0 32 32
r 0.74388 1 2 cbr 210 ------- 0 0.0 2.0 31 31
r 0.74518 0 1 cbr 210 ------- 0 0.0 2.0 47 47
+ 0.74518 1 2 cbr 210 ------- 0 0.0 2.0 47 47
+ 0.746 0 1 cbr 210 ------- 0 0.0 2.0 52 52
- 0.746 0 1 cbr 210 ------- 0 0.0 2.0 52 52
r 0.75568 0 1 cbr 210 ------- 0 0.0 2.0 48 48
+ 0.75568 1 2 cbr 210 ------- 0 0.0 2.0 48 48
d 0.75568 1 2 cbr 210 ------- 0 0.0 2.0 48 48
- 0.75568 1 2 cbr 210 ------- 0 0.0 2.0 34 34
+ 0.7565 0 1 cbr 210 ------- 0 0.0 2.0 53 53
- 0.7565 0 1 cbr 210 ------- 0 0.0 2.0 53 53
r 0.76068 1 2 cbr 210 ------- 0 0.0 2.0 32 32
r 0.76618 0 1 cbr 210 ------- 0 0.0 2.0 49 49
+ 0.76618 1 2 cbr 210 ------- 0 0.0 2.0 49 49
+ 0.767 0 1 cbr 210 ------- 0 0.0 2.0 54 54
- 0.767 0 1 cbr 210 ------- 0 0.0 2.0 54 54
- 0.77248 1 2 cbr 210 ------- 0 0.0 2.0 36 36
r 0.77668 0 1 cbr 210 ------- 0 0.0 2.0 50 50
+ 0.77668 1 2 cbr 210 ------- 0 0.0 2.0 50 50
r 0.77748 1 2 cbr 210 ------- 0 0.0 2.0 34 34
+ 0.7775 0 1 cbr 210 ------- 0 0.0 2.0 55 55
- 0.7775 0 1 cbr 210 ------- 0 0.0 2.0 55 55
r 0.78718 0 1 cbr 210 ------- 0 0.0 2.0 51 51
+ 0.78718 1 2 cbr 210 ------- 0 0.0 2.0 51 51
d 0.78718 1 2 cbr 210 ------- 0 0.0 2.0 51 51
+ 0.788 0 1 cbr 210 ------- 0 0.0 2.0 56 56
- 0.788 0 1 cbr 210 ------- 0 0.0 2.0 56 56
- 0.78928 1 2 cbr 210 ------- 0 0.0 2.0 37 37
r 0.79428 1 2 cbr 210 ------- 0 0.0 2.0 36 36
r 0.79768 0 1 cbr 210 ------- 0 0.0 2.0 52 52
+ 0.79768 1 2 cbr 210 ------- 0 0.0 2.0 52 52
+ 0.7985 0 1 cbr 210 ------- 0 0.0 2.0 57 57
- 0.7985 0 1 cbr 210 ------- 0 0.0 2.0 57 57
- 0.80608 1 2 cbr 210 ------- 0 0.0 2.0 39 39
r 0.80818 0 1 cbr 210 ------- 0 0.0 2.0 53 53
+ 0.80818 1 2 cbr 210 ------- 0 0.0 2.0 53 53
+ 0.809 0 1 cbr 210 ------- 0 0.0 2.0 58 58
- 0.809 0 1 cbr 210 ------- 0 0.0 2.0 58 58
r 0.81108 1 2 cbr 210 ------- 0 0.0 2.0 37 37
r 0.81868 0 1 cbr 210 ------- 0 0.0 2.0 54 54
+ 0.81868 1 2 cbr 210 ------- 0 0.0 2.0 54 54
d 0.81868 1 2 cbr 210 ------- 0 0.0 2.0 54 54
+ 0.8195 0 1 cbr 210 ------- 0 0.0 2.0 59 59
- 0.8195 0 1 cbr 210 ------- 0 0.0 2.0 59 59
- 0.82288 1 2 cbr 210 ------- 0 0.0 2.0 41 41
r 0.82788 1 2 cbr 210 ------- 0 0.0 2.0 39 39
r 0.82918 0 1 cbr 210 ------- 0 0.0 2.0 55 55
+ 0.82918 1 2 cbr 210 ------- 0 0.0 2.0 55 55
+ 0.83 0 1 cbr 210 ------- 0 0.0 2.0 60 60
- 0.83 0 1 cbr 210 ------- 0 0.0 2.0 60 60
r 0.83968 0 1 cbr 210 ------- 0 0.0 2.0 56 56
+ 0.83968 1 2 cbr 210 ------- 0 0.0 2.0 56 56
d 0.83968 1 2 cbr 210 ------- 0 0.0 2.0 56 56
- 0.83968 1 2 cbr 210 ------- 0 0.0 2.0 42 42
+ 0.8405 0 1 cbr 210 ------- 0 0.0 2.0 61 61
- 0.8405 0 1 cbr 210 ------- 0 0.0 2.0 61 61
r 0.84468 1 2 cbr 210 ------- 0 0.0 2.0 41 41
r 0.85018 0 1 cbr 210 ------- 0 0.0 2.0 57 57
+ 0.85018 1 2 cbr 210 ------- 0 0.0 2.0 57 57
+ 0.851 0 1 cbr 210 ------- 0 0.0 2.0 62 62
- 0.851 0 1 cbr 210 ------- 0 0.0 2.0 62 62
- 0.85648 1 2 cbr 210 ------- 0 0.0 2.0 44 44
r 0.86068 0 1 cbr 210 ------- 0 0.0 2.0 58 58
+ 0.86068 1 2 cbr 210 ------- 0 0.0 2.0 58 58
r 0.86148 1 2 cbr 210 ------- 0 0.0 2.0 42 42
+ 0.8615 0 1 cbr 210 ------- 0 0.0 2.0 63 63
- 0.8615 0 1 cbr 210 ------- 0 0.0 2.0 63 63
r 0.87118 0 1 cbr 210 ------- 0 0.0 2.0 59 59
+ 0.87118 1 2 cbr 210 ------- 0 0.0 2.0 59 59
d 0.87118 1 2 cbr 210 ------- 0 0.0 2.0 59 59
+ 0.872 0 1 cbr 210 ------- 0 0.0 2.0 64 64
- 0.872 0 1 cbr 210 ------- 0 0.0 2.0 64 64
- 0.87328 1 2 cbr 210 ------- 0 0.0 2.0 45 45
r 0.87828 1 2 cbr 210 ------- 0 0.0 2.0 44 44
r 0.88168 0 1 cbr 210 ------- 0 0.0 2.0 60 60
+ 0.88168 1 2 cbr 210 ------- 0 0.0 2.0 60 60
+ 0.8825 0 1 cbr 210 ------- 0 0.0 2.0 65 65
- 0.8825 0 1 cbr 210 ------- 0 0.0 2.0 65 65
- 0.89008 1 2 cbr 210 ------- 0 0.0 2.0 47 47
r 0.89218 0 1 cbr 210 ------- 0 0.0 2.0 61 61
+ 0.89218 1 2 cbr 210 ------- 0 0.0 2.0 61 61
+ 0.893 0 1 cbr 210 ------- 0 0.0 2.0 66 66
- 0.893 0 1 cbr 210 ------- 0 0.0 2.0 66 66
r 0.89508 1 2 cbr 210 ------- 0 0.0 2.0 45 45
r 0.90268 0 1 cbr 210 ------- 0 0.0 2.0 62 62
+ 0.90268 1 2 cbr 210 ------- 0 0.0 2.0 62 62
d 0.90268 1 2 cbr 210 ------- 0 0.0 2.0 62 62
+ 0.9035 0 1 cbr 210 ------- 0 0.0 2.0 67 67
- 0.9035 0 1 cbr 210 ------- 0 0.0 2.0 67 67
- 0.90688 1 2 cbr 210 ------- 0 0.0 2.0 49 49
r 0.91188 1 2 cbr 210 ------- 0 0.0 2.0 47 47
r 0.91318 0 1 cbr 210 ------- 0 0.0 2.0 63 63
+ 0.91318 1 2 cbr 210 ------- 0 0.0 2.0 63 63
+ 0.914 0 1 cbr 210 ------- 0 0.0 2.0 68 68
- 0.914 0 1 cbr 210 ------- 0 0.0 2.0 68 68
r 0.92368 0 1 cbr 210 ------- 0 0.0 2.0 64 64
+ 0.92368 1 2 cbr 210 ------- 0 0.0 2.0 64 64
d 0.92368 1 2 cbr 210 ------- 0 0.0 2.0 64 64
- 0.92368 1 2 cbr 210 ------- 0 0.0 2.0 50 50
+ 0.9245 0 1 cbr 210 ------- 0 0.0 2.0 69 69
- 0.9245 0 1 cbr 210 ------- 0 0.0 2.0 69 69
r 0.92868 1 2 cbr 210 ------- 0 0.0 2.0 49 49
r 0.93418 0 1 cbr 210 ------- 0 0.0 2.0 65 65
+ 0.93418 1 2 cbr 210 ------- 0 0.0 2.0 65 65
+ 0.935 0 1 cbr 210 ------- 0 0.0 2.0 70 70
- 0.935 0 1 cbr 210 ------- 0 0.0 2.0 70 70
- 0.94048 1 2 cbr 210 ------- 0 0.0 2.0 52 52
r 0.94468 0 1 cbr 210 ------- 0 0.0 2.0 66 66
+ 0.94468 1 2 cbr 210 ------- 0 0.0 2.0 66 66
r 0.94548 1 2 cbr 210 ------- 0 0.0 2.0 50 50
+ 0.9455 0 1 cbr 210 ------- 0 0.0 2.0 71 71
- 0.9455 0 1 cbr 210 ------- 0 0.0 2.0 71 71
r 0.95518 0 1 cbr 210 ------- 0 0.0 2.0 67 67
+ 0.95518 1 2 cbr 210 ------- 0 0.0 2.0 67 67
d 0.95518 1 2 cbr 210 ------- 0 0.0 2.0 67 67
+ 0.956 0 1 cbr 210 ------- 0 0.0 2.0 72 72
- 0.956 0 1 cbr 210 ------- 0 0.0 2.0 72 72
- 0.95728 1 2 cbr 210 ------- 0 0.0 2.0 53 53
r 0.96228 1 2 cbr 210 ------- 0 0.0 2.0 52 52
r 0.96568 0 1 cbr 210 ------- 0 0.0 2.0 68 68
+ 0.96568 1 2 cbr 210 ------- 0 0.0 2.0 68 68
+ 0.9665 0 1 cbr 210 ------- 0 0.0 2.0 73 73
- 0.9665 0 1 cbr 210 ------- 0 0.0 2.0 73 73
- 0.97408 1 2 cbr 210 ------- 0 0.0 2.0 55 55
r 0.97618 0 1 cbr 210 ------- 0 0.0 2.0 69 69
+ 0.97618 1 2 cbr 210 ------- 0 0.0 2.0 69 69
+ 0.977 0 1 cbr 210 ------- 0 0.0 2.0 74 74
- 0.977 0 1 cbr 210 ------- 0 0.0 2.0 74 74
r 0.97908 1 2 cbr 210 ------- 0 0.0 2.0 53 53
r 0.98668 0 1 cbr 210 ------- 0 0.0 2.0 70 70
+ 0.98668 1 2 cbr 210 ------- 0 0.0 2.0 70 70
d 0.98668 1 2 cbr 210 ------- 0 0.0 2.0 70 70
+ 0.9875 0 1 cbr 210 ------- 0 0.0 2.0 75 75
- 0.9875 0 1 cbr 210 ------- 0 0.0 2.0 75 75
- 0.99088 1 2 cbr 210 ------- 0 0.0 2.0 57 57
r 0.99588 1 2 cbr 210 ------- 0 0.0 2.0 55 55
r 0.99718 0 1 cbr 210 ------- 0 0.0 2.0 71 71
+ 0.99718 1 2 cbr 210 ------- 0 0.0 2.0 71 71
+ 0.998 0 1 cbr 210 ------- 0 0.0 2.0 76 76
- 0.998 0 1 cbr 210 ------- 0 0.0 2.0 76 76
r 1.00768 0 1 cbr 210 ------- 0 0.0 2.0 72 72
+ 1.00768 1 2 cbr 210 ------- 0 0.0 2.0 72 72
d 1.00768 1 2 cbr 210 ------- 0 0.0 2.0 72 72
- 1.00768 1 2 cbr 210 ------- 0 0.0 2.0 58 58
+ 1.0085 0 1 cbr 210 ------- 0 0.0 2.0 77 77
- 1.0085 0 1 cbr 210 ------- 0 0.0 2.0 77 77
r 1.01268 1 2 cbr 210 ------- 0 0.0 2.0 57 57
r 1.01818 0 1 cbr 210 ------- 0 0.0 2.0 73 73
+ 1.01818 1 2 cbr 210 ------- 0 0.0 2.0 73 73
+ 1.019 0 1 cbr 210 ------- 0 0.0 2.0 78 78
- 1.019 0 1 cbr 210 ------- 0 0.0 2.0 78 78
- 1.02448 1 2 cbr 210 ------- 0 0.0 2.0 60 60
r 1.02868 0 1 cbr 210 ------- 0 0.0 2.0 74 74
+ 1.02868 1 2 cbr 210 ------- 0 0.0 2.0 74 74
r 1.02948 1 2 cbr 210 ------- 0 0.0 2.0 58 58
+ 1.0295 0 1 cbr 210 ------- 0 0.0 2.0 79 79
- 1.0295 0 1 cbr 210 ------- 0 0.0 2.0 79 79
r 1.03918 0 1 cbr 210 ------- 0 0.0 2.0 75 75
+ 1.03918 1 2 cbr 210 ------- 0 0.0 2.0 75 75
d 1.03918 1 2 cbr 210 ------- 0 0.0 2.0 75 75
+ 1.04 0 1 cbr 210 ------- 0 0.0 2.0 80 80
- 1.04 0 1 cbr 210 ------- 0 0.0 2.0 80 80
- 1.04128 1 2 cbr 210 ------- 0 0.0 2.0 61 61
r 1.04628 1 2 cbr 210 ------- 0 0.0 2.0 60 60
r 1.04968 0 1 cbr 210 ------- 0 0.0 2.0 76 76
+ 1.04968 1 2 cbr 210 ------- 0 0.0 2.0 76 76
+ 1.0505 0 1 cbr 210 ------- 0 0.0 2.0 81 81
- 1.0505 0 1 cbr 210 ------- 0 0.0 2.0 81 81
- 1.05808 1 2 cbr 210 ------- 0 0.0 2.0 63 63
r 1.06018 0 1 cbr 210 ------- 0 0.0 2.0 77 77
+ 1.06018 1 2 cbr 210 ------- 0 0.0 2.0 77 77
+ 1.061 0 1 cbr 210 ------- 0 0.0 2.0 82 82
- 1.061 0 1 cbr 210 ------- 0 0.0 2.0 82 82
r 1.06308 1 2 cbr 210 ------- 0 0.0 2.0 61 61
r 1.07068 0 1 cbr 210 ------- 0 0.0 2.0 78 78
+ 1.07068 1 2 cbr 210 ------- 0 0.0 2.0 78 78
d 1.07068 1 2 cbr 210 ------- 0 0.0 2.0 78 78
+ 1.0715 0 1 cbr 210 ------- 0 0.0 2.0 83 83
- 1.0715 0 1 cbr 210 ------- 0 0.0 2.0 83 83
- 1.07488 1 2 cbr 210 ------- 0 0.0 2.0 65 65
r 1.07988 1 2 cbr 210 ------- 0 0.0 2.0 63 63
r 1.08118 0 1 cbr 210 ------- 0 0.0 2.0 79 79
+ 1.08118 1 2 cbr 210 ------- 0 0.0 2.0 79 79
+ 1.082 0 1 cbr 210 ------- 0 0.0 2.0 84 84
- 1.082 0 1 cbr 210 ------- 0 0.0 2.0 84 84
r 1.09168 0 1 cbr 210 ------- 0 0.0 2.0 80 80
+ 1.09168 1 2 cbr 210 ------- 0 0.0 2.0 80 80
d 1.09168 1 2 cbr 210 ------- 0 0.0 2.0 80 80
- 1.09168 1 2 cbr 210 ------- 0 0.0 2.0 66 66
+ 1.0925 0 1 cbr 210 ------- 0 0.0 2.0 85 85
- 1.0925 0 1 cbr 210 ------- 0 0.0 2.0 85 85
r 1.09668 1 2 cbr 210 ------- 0 0.0 2.0 65 65
r 1.10218 0 1 cbr 210 ------- 0 0.0 2.0 81 81
+ 1.10218 1 2 cbr 210 ------- 0 0.0 2.0 81 81
+ 1.103 0 1 cbr 210 ------- 0 0.0 2.0 86 86
- 1.103 0 1 cbr 210 ------- 0 0.0 2.0 86 86
- 1.10848 1 2 cbr 210 ------- 0 0.0 2.0 68 68
r 1.11268 0 1 cbr 210 ------- 0 0.0 2.0 82 82
+ 1.11268 1 2 cbr 210 ------- 0 0.0 2.0 82 82
r 1.11348 1 2 cbr 210 ------- 0 0.0 2.0 66 66
+ 1.1135 0 1 cbr 210 ------- 0 0.0 2.0 87 87
- 1.1135 0 1 cbr 210 ------- 0 0.0 2.0 87 87
r 1.12318 0 1 cbr 210 ------- 0 0.0 2.0 83 83
+ 1.12318 1 2 cbr 210 ------- 0 0.0 2.0 83 83
d 1.12318 1 2 cbr 210 ------- 0 0.0 2.0 83 83
+ 1.124 0 1 cbr 210 ------- 0 0.0 2.0 88 88
- 1.124 0 1 cbr 210 ------- 0 0.0 2.0 88 88
- 1.12528 1 2 cbr 210 ------- 0 0.0 2.0 69 69
r 1.13028 1 2 cbr 210 ------- 0 0.0 2.0 68 68
r 1.13368 0 1 cbr 210 ------- 0 0.0 2.0 84 84
+ 1.13368 1 2 cbr 210 ------- 0 0.0 2.0 84 84
+ 1.1345 0 1 cbr 210 ------- 0 0.0 2.0 89 89
- 1.1345 0 1 cbr 210 ------- 0 0.0 2.0 89 89
- 1.14208 1 2 cbr 210 ------- 0 0.0 2.0 71 71
r 1.14418 0 1 cbr 210 ------- 0 0.0 2.0 85 85
+ 1.14418 1 2 cbr 210 ------- 0 0.0 2.0 85 85
+ 1.145 0 1 cbr 210 ------- 0 0.0 2.0 90 90
- 1.145 0 1 cbr 210 ------- 0 0.0 2.0 90 90
r 1.14708 1 2 cbr 210 ------- 0 0.0 2.0 69 69
r 1.15468 0 1 cbr 210 ------- 0 0.0 2.0 86 86
+ 1.15468 1 2 cbr 210 ------- 0 0.0 2.0 86 86
d 1.15468 1 2 cbr 210 ------- 0 0.0 2.0 86 86
+ 1.1555 0 1 cbr 210 ------- 0 0.0 2.0 91 91
- 1.1555 0 1 cbr 210 ------- 0 0.0 2.0 91 91
- 1.15888 1 2 cbr 210 ------- 0 0.0 2.0 73 73
r 1.16388 1 2 cbr 210 ------- 0 0.0 2.0 71 71
r 1.16518 0 1 cbr 210 ------- 0 0.0 2.0 87 87
+ 1.16518 1 2 cbr 210 ------- 0 0.0 2.0 87 87
+ 1.166 0 1 cbr 210 ------- 0 0.0 2.0 92 92
- 1.166 0 1 cbr 210 ------- 0 0.0 2.0 92 92
r 1.17568 0 1 cbr 210 ------- 0 0.0 2.0 88 88
+ 1.17568 1 2 cbr 210 ------- 0 0.0 2.0 88 88
d 1.17568 1 2 cbr 210 ------- 0 0.0 2.0 88 88
- 1.17568 1 2 cbr 210 ------- 0 0.0 2.0 74 74
+ 1.1765 0 1 cbr 210 ------- 0 0.0 2.0 93 93
- 1.1765 0 1 cbr 210 ------- 0 0.0 2.0 93 93
r 1.18068 1 2 cbr 210 ------- 0 0.0 2.0 73 73
r 1.18618 0 1 cbr 210 ------- 0 0.0 2.0 89 89
+ 1.18618 1 2 cbr 210 ------- 0 0.0 2.0 89 89
+ 1.187 0 1 cbr 210 ------- 0 0.0 2.0 94 94
- 1.187 0 1 cbr 210 ------- 0 0.0 2.0 94 94
- 1.19248 1 2 cbr 210 ------- 0 0.0 2.0 76 76
r 1.19668 0 1 cbr 210 ------- 0 0.0 2.0 90 90
+ 1.19668 1 2 cbr 210 ------- 0 0.0 2.0 90 90
r 1.19748 1 2 cbr 210 ------- 0 0.0 2.0 74 74
+ 1.1975 0 1 cbr 210 ------- 0 0.0 2.0 95 95
- 1.1975 0 1 cbr 210 ------- 0 0.0 2.0 95 95
r 1.20718 0 1 cbr 210 ------- 0 0.0 2.0 91 91
+ 1.20718 1 2 cbr 210 ------- 0 0.0 2.0 91 91
d 1.20718 1 2 cbr 210 ------- 0 0.0 2.0 91 91
+ 1.208 0 1 cbr 210 ------- 0 0.0 2.0 96 96
- 1.208 0 1 cbr 210 ------- 0 0.0 2.0 96 96
- 1.20928 1 2 cbr 210 ------- 0 0.0 2.0 77 77
r 1.21428 1 2 cbr 210 ------- 0 0.0 2.0 76 76
r 1.21768 0 1 cbr 210 ------- 0 0.0 2.0 92 92
+ 1.21768 1 2 cbr 210 ------- 0 0.0 2.0 92 92
+ 1.2185 0 1 cbr 210 ------- 0 0.0 2.0 97 97
- 1.2185 0 1 cbr 210 ------- 0 0.0 2.0 97 97
- 1.22608 1 2 cbr 210 ------- 0 0.0 2.0 79 79
r 1.22818 0 1 cbr 210 ------- 0 0.0 2.0 93 93
+ 1.22818 1 2 cbr 210 ------- 0 0.0 2.0 93 93
+ 1.229 0 1 cbr 210 ------- 0 0.0 2.0 98 98
- 1.229 0 1 cbr 210 ------- 0 0.0 2.0 98 98
r 1.23108 1 2 cbr 210 ------- 0 0.0 2.0 77 77
r 1.23868 0 1 cbr 210 ------- 0 0.0 2.0 94 94
+ 1.23868 1 2 cbr 210 ------- 0 0.0 2.0 94 94
d 1.23868 1 2 cbr 210 ------- 0 0.0 2.0 94 94
+ 1.2395 0 1 cbr 210 ------- 0 0.0 2.0 99 99
- 1.2395 0 1 cbr 210 ------- 0 0.0 2.0 99 99
- 1.24288 1 2 cbr 210 ------- 0 0.0 2.0 81 81
r 1.24788 1 2 cbr 210 ------- 0 0.0 2.0 79 79
r 1.24918 0 1 cbr 210 ------- 0 0.0 2.0 95 95
+ 1.24918 1 2 cbr 210 ------- 0 0.0 2.0 95 95
+ 1.25 0 1 cbr 210 ------- 0 0.0 2.0 100 100
- 1.25 0 1 cbr 210 ------- 0 0.0 2.0 100 100
r 1.25968 0 1 cbr 210 ------- 0 0.0 2.0 96 96
+ 1.25968 1 2 cbr 210 ------- 0 0.0 2.0 96 96
d 1.25968 1 2 cbr 210 ------- 0 0.0 2.0 96 96
- 1.25968 1 2 cbr 210 ------- 0 0.0 2.0 82 82
+ 1.2605 0 1 cbr 210 ------- 0 0.0 2.0 101 101
- 1.2605 0 1 cbr 210 ------- 0 0.0 2.0 101 101
r 1.26468 1 2 cbr 210 ------- 0 0.0 2.0 81 81
r 1.27018 0 1 cbr 210 ------- 0 0.0 2.0 97 97
+ 1.27018 1 2 cbr 210 ------- 0 0.0 2.0 97 97
+ 1.271 0 1 cbr 210 ------- 0 0.0 2.0 102 102
- 1.271 0 1 cbr 210 ------- 0 0.0 2.0 102 102
- 1.27648 1 2 cbr 210 ------- 0 0.0 2.0 84 84
r 1.28068 0 1 cbr 210 ------- 0 0.0 2.0 98 98
+ 1.28068 1 2 cbr 210 ------- 0 0.0 2.0 98 98
r 1.28148 1 2 cbr 210 ------- 0 0.0 2.0 82 82
+ 1.2815 0 1 cbr 210 ------- 0 0.0 2.0 103 103
- 1.2815 0 1 cbr 210 ------- 0 0.0 2.0 103 103
r 1.29118 0 1 cbr 210 ------- 0 0.0 2.0 99 99
+ 1.29118 1 2 cbr 210 ------- 0 0.0 2.0 99 99
d 1.29118 1 2 cbr 210 ------- 0 0.0 2.0 99 99
+ 1.292 0 1 cbr 210 ------- 0 0.0 2.0 104 104
- 1.292 0 1 cbr 210 ------- 0 0.0 2.0 104 104
- 1.29328 1 2 cbr 210 ------- 0 0.0 2.0 85 85
r 1.29828 1 2 cbr 210 ------- 0 0.0 2.0 84 84
r 1.30168 0 1 cbr 210 ------- 0 0.0 2.0 100 100
+ 1.30168 1 2 cbr 210 ------- 0 0.0 2.0 100 100
+ 1.3025 0 1 cbr 210 ------- 0 0.0 2.0 105 105
- 1.3025 0 1 cbr 210 ------- 0 0.0 2.0 105 105
- 1.31008 1 2 cbr 210 ------- 0 0.0 2.0 87 87
r 1.31218 0 1 cbr 210 ------- 0 0.0 2.0 101 101
+ 1.31218 1 2 cbr 210 ------- 0 0.0 2.0 101 101
+ 1.313 0 1 cbr 210 ------- 0 0.0 2.0 106 106
- 1.313 0 1 cbr 210 ------- 0 0.0 2.0 106 106
r 1.31508 1 2 cbr 210 ------- 0 0.0 2.0 85 85
r 1.32268 0 1 cbr 210 ------- 0 0.0 2.0 102 102
+ 1.32268 1 2 cbr 210 ------- 0 0.0 2.0 102 102
d 1.32268 1 2 cbr 210 ------- 0 0.0 2.0 102 102
+ 1.3235 0 1 cbr 210 ------- 0 0.0 2.0 107 107
- 1.3235 0 1 cbr 210 ------- 0 0.0 2.0 107 107
- 1.32688 1 2 cbr 210 ------- 0 0.0 2.0 89 89
r 1.33188 1 2 cbr 210 ------- 0 0.0 2.0 87 87
r 1.33318 0 1 cbr 210 ------- 0 0.0 2.0 103 103
+ 1.33318 1 2 cbr 210 ------- 0 0.0 2.0 103 103
+ 1.334 0 1 cbr 210 ------- 0 0.0 2.0 108 108
- 1.334 0 1 cbr 210 ------- 0 0.0 2.0 108 108
r 1.34368 0 1 cbr 210 ------- 0 0.0 2.0 104 104
+ 1.34368 1 2 cbr 210 ------- 0 0.0 2.0 104 104
d 1.34368 1 2 cbr 210 ------- 0 0.0 2.0 104 104
- 1.34368 1 2 cbr 210 ------- 0 0.0 2.0 90 90
+ 1.3445 0 1 cbr 210 ------- 0 0.0 2.0 109 109
- 1.3445 0 1 cbr 210 ------- 0 0.0 2.0 109 109
r 1.34868 1 2 cbr 210 ------- 0 0.0 2.0 89 89
r 1.35418 0 1 cbr 210 ------- 0 0.0 2.0 105 105
+ 1.35418 1 2 cbr 210 ------- 0 0.0 2.0 105 105
+ 1.355 0 1 cbr 210 ------- 0 0.0 2.0 110 110
- 1.355 0 1 cbr 210 ------- 0 0.0 2.0 110 110
- 1.36048 1 2 cbr 210 ------- 0 0.0 2.0 92 92
r 1.36468 0 1 cbr 210 ------- 0 0.0 2.0 106 106
+ 1.36468 1 2 cbr 210 ------- 0 0.0 2.0 106 106
r 1.36548 1 2 cbr 210 ------- 0 0.0 2.0 90 90
+ 1.3655 0 1 cbr 210 ------- 0 0.0 2.0 111 111
- 1.3655 0 1 cbr 210 ------- 0 0.0 2.0 111 111
r 1.37518 0 1 cbr 210 ------- 0 0.0 2.0 107 107
+ 1.37518 1 2 cbr 210 ------- 0 0.0 2.0 107 107
d 1.37518 1 2 cbr 210 ------- 0 0.0 2.0 107 107
+ 1.376 0 1 cbr 210 ------- 0 0.0 2.0 112 112
- 1.376 0 1 cbr 210 ------- 0 0.0 2.0 112 112
- 1.37728 1 2 cbr 210 ------- 0 0.0 2.0 93 93
r 1.38228 1 2 cbr 210 ------- 0 0.0 2.0 92 92
r 1.38568 0 1 cbr 210 ------- 0 0.0 2.0 108 108
+ 1.38568 1 2 cbr 210 ------- 0 0.0 2.0 108 108
+ 1.3865 0 1 cbr 210 ------- 0 0.0 2.0 113 113
- 1.3865 0 1 cbr 210 ------- 0 0.0 2.0 113 113
- 1.39408 1 2 cbr 210 ------- 0 0.0 2.0 95 95
r 1.39618 0 1 cbr 210 ------- 0 0.0 2.0 109 109
+ 1.39618 1 2 cbr 210 ------- 0 0.0 2.0 109 109
+ 1.397 0 1 cbr 210 ------- 0 0.0 2.0 114 114
- 1.397 0 1 cbr 210 ------- 0 0.0 2.0 114 114
r 1.39908 1 2 cbr 210 ------- 0 0.0 2.0 93 93
r 1.40668 0 1 cbr 210 ------- 0 0.0 2.0 110 110
+ 1.40668 1 2 cbr 210 ------- 0 0.0 2.0 110 110
d 1.40668 1 2 cbr 210 ------- 0 0.0 2.0 110 110
+ 1.4075 0 1 cbr 210 ------- 0 0.0 2.0 115 115
- 1.4075 0 1 cbr 210 ------- 0 0.0 2.0 115 115
- 1.41088 1 2 cbr 210 ------- 0 0.0 2.0 97 97
r 1.41588 1 2 cbr 210 ------- 0 0.0 2.0 95 95
r 1.41718 0 1 cbr 210 ------- 0 0.0 2.0 111 111
+ 1.41718 1 2 cbr 210 ------- 0 0.0 2.0 111 111
+ 1.418 0 1 cbr 210 ------- 0 0.0 2.0 116 116
- 1.418 0 1 cbr 210 ------- 0 0.0 2.0 116 116
r 1.42768 0 1 cbr 210 ------- 0 0.0 2.0 112 112
+ 1.42768 1 2 cbr 210 ------- 0 0.0 2.0 112 112
d 1.42768 1 2 cbr 210 ------- 0 0.0 2.0 112 112
- 1.42768 1 2 cbr 210 ------- 0 0.0 2.0 98 98
+ 1.4285 0 1 cbr 210 ------- 0 0.0 2.0 117 117
- 1.4285 0 1 cbr 210 ------- 0 0.0 2.0 117 117
r 1.43268 1 2 cbr 210 ------- 0 0.0 2.0 97 97
r 1.43818 0 1 cbr 210 ------- 0 0.0 2.0 113 113
+ 1.43818 1 2 cbr 210 ------- 0 0.0 2.0 113 113
+ 1.439 0 1 cbr 210 ------- 0 0.0 2.0 118 118
- 1.439 0 1 cbr 210 ------- 0 0.0 2.0 118 118
- 1.44448 1 2 cbr 210 ------- 0 0.0 2.0 100 100
r 1.44868 0 1 cbr 210 ------- 0 0.0 2.0 114 114
+ 1.44868 1 2 cbr 210 ------- 0 0.0 2.0 114 114
r 1.44948 1 2 cbr 210 ------- 0 0.0 2.0 98 98
+ 1.4495 0 1 cbr 210 ------- 0 0.0 2.0 119 119
- 1.4495 0 1 cbr 210 ------- 0 0.0 2.0 119 119
r 1.45918 0 1 cbr 210 ------- 0 0.0 2.0 115 115
+ 1.45918 1 2 cbr 210 ------- 0 0.0 2.0 115 115
d 1.45918 1 2 cbr 210 ------- 0 0.0 2.0 115 115
+ 1.46 0 1 cbr 210 ------- 0 0.0 2.0 120 120
- 1.46 0 1 cbr 210 ------- 0 0.0 2.0 120 120
- 1.46128 1 2 cbr 210 ------- 0 0.0 2.0 101 101
r 1.46628 1 2 cbr 210 ------- 0 0.0 2.0 100 100
r 1.46968 0 1 cbr 210 ------- 0 0.0 2.0 116 116
+ 1.46968 1 2 cbr 210 ------- 0 0.0 2.0 116 116
+ 1.4705 0 1 cbr 210 ------- 0 0.0 2.0 121 121
- 1.4705 0 1 cbr 210 ------- 0 0.0 2.0 121 121
- 1.47808 1 2 cbr 210 ------- 0 0.0 2.0 103 103