+ 0.2 0 1 cbr 210 ------- 0 0.0 2.0 0 0
- 0.2 0 1 cbr 210 ------- 0 0.0 2.0 0 0
+ 0.214 0 1 cbr 210 ------- 0 0.0 2.0 1 1
- 0.214 0 1 cbr 210 ------- 0 0.0 2.0 1 1
+ 0.228 0 1 cbr 210 ------- 0 0.0 2.0 2 2
- 0.228 0 1 cbr 210 ------- 0 0.0 2.0 2 2
+ 0.242 0 1 cbr 210 ------- 0 0.0 2.0 3 3
- 0.242 0 1 cbr 210 ------- 0 0.0 2.0 3 3
r 0.25168 0 1 cbr 210 ------- 0 0.0 2.0 0 0
+ 0.25168 1 2 cbr 210 ------- 0 0.0 2.0 0 0
- 0.25168 1 2 cbr 210 ------- 0 0.0 2.0 0 0
+ 0.256 0 1 cbr 210 ------- 0 0.0 2.0 4 4
- 0.256 0 1 cbr 210 ------- 0 0.0 2.0 4 4
r 0.26568 0 1 cbr 210 ------- 0 0.0 2.0 1 1
+ 0.26568 1 2 cbr 210 ------- 0 0.0 2.0 1 1
- 0.26848 1 2 cbr 210 ------- 0 0.0 2.0 1 1
+ 0.27 0 1 cbr 210 ------- 0 0.0 2.0 5 5
- 0.27 0 1 cbr 210 ------- 0 0.0 2.0 5 5
r 0.27348 1 2 cbr 210 ------- 0 0.0 2.0 0 0
r 0.27968 0 1 cbr 210 ------- 0 0.0 2.0 2 2
+ 0.27968 1 2 cbr 210 ------- 0 0.0 2.0 2 2
+ 0.284 0 1 cbr 210 ------- 0 0.0 2.0 6 6
- 0.284 0 1 cbr 210 ------- 0 0.0 2.0 6 6
- 0.28528 1 2 cbr 210 ------- 0 0.0 2.0 2 2
r 0.29028 1 2 cbr 210 ------- 0 0.0 2.0 1 1
r 0.29368 0 1 cbr 210 ------- 0 0.0 2.0 3 3
+ 0.29368 1 2 cbr 210 ------- 0 0.0 2.0 3 3
+ 0.298 0 1 cbr 210 ------- 0 0.0 2.0 7 7
- 0.298 0 1 cbr 210 ------- 0 0.0 2.0 7 7
- 0.30208 1 2 cbr 210 ------- 0 0.0 2.0 3 3
r 0.30708 1 2 cbr 210 ------- 0 0.0 2.0 2 2
r 0.30768 0 1 cbr 210 ------- 0 0.0 2.0 4 4
+ 0.30768 1 2 cbr 210 ------- 0 0.0 2.0 4 4
+ 0.312 0 1 cbr 210 ------- 0 0.0 2.0 8 8
- 0.312 0 1 cbr 210 ------- 0 0.0 2.0 8 8
- 0.31888 1 2 cbr 210 ------- 0 0.0 2.0 4 4
r 0.32168 0 1 cbr 210 ------- 0 0.0 2.0 5 5
+ 0.32168 1 2 cbr 210 ------- 0 0.0 2.0 5 5
r 0.32388 1 2 cbr 210 ------- 0 0.0 2.0 3 3
+ 0.326 0 1 cbr 210 ------- 0 0.0 2.0 9 9
- 0.326 0 1 cbr 210 ------- 0 0.0 2.0 9 9
- 0.33568 1 2 cbr 210 ------- 0 0.0 2.0 5 5
r 0.33568 0 1 cbr 210 ------- 0 0.0 2.0 6 6
+ 0.33568 1 2 cbr 210 ------- 0 0.0 2.0 6 6
+ 0.34 0 1 cbr 210 ------- 0 0.0 2.0 10 10
- 0.34 0 1 cbr 210 ------- 0 0.0 2.0 10 10
r 0.34068 1 2 cbr 210 ------- 0 0.0 2.0 4 4
r 0.34968 0 1 cbr 210 ------- 0 0.0 2.0 7 7
+ 0.34968 1 2 cbr 210 ------- 0 0.0 2.0 7 7
- 0.35248 1 2 cbr 210 ------- 0 0.0 2.0 6 6
+ 0.354 0 1 cbr 210 ------- 0 0.0 2.0 11 11
- 0.354 0 1 cbr 210 ------- 0 0.0 2.0 11 11
r 0.35748 1 2 cbr 210 ------- 0 0.0 2.0 5 5
r 0.36368 0 1 cbr 210 ------- 0 0.0 2.0 8 8
+ 0.36368 1 2 cbr 210 ------- 0 0.0 2.0 8 8
+ 0.368 0 1 cbr 210 ------- 0 0.0 2.0 12 12
- 0.368 0 1 cbr 210 ------- 0 0.0 2.0 12 12
- 0.36928 1 2 cbr 210 ------- 0 0.0 2.0 7 7
r 0.37428 1 2 cbr 210 ------- 0 0.0 2.0 6 6
r 0.37768 0 1 cbr 210 ------- 0 0.0 2.0 9 9
+ 0.37768 1 2 cbr 210 ------- 0 0.0 2.0 9 9
+ 0.382 0 1 cbr 210 ------- 0 0.0 2.0 13 13
- 0.382 0 1 cbr 210 ------- 0 0.0 2.0 13 13
- 0.38608 1 2 cbr 210 ------- 0 0.0 2.0 8 8
r 0.39108 1 2 cbr 210 ------- 0 0.0 2.0 7 7
r 0.39168 0 1 cbr 210 ------- 0 0.0 2.0 10 10
+ 0.39168 1 2 cbr 210 ------- 0 0.0 2.0 10 10
+ 0.396 0 1 cbr 210 ------- 0 0.0 2.0 14 14
- 0.396 0 1 cbr 210 ------- 0 0.0 2.0 14 14
- 0.40288 1 2 cbr 210 ------- 0 0.0 2.0 9 9
r 0.40568 0 1 cbr 210 ------- 0 0.0 2.0 11 11
+ 0.40568 1 2 cbr 210 ------- 0 0.0 2.0 11 11
r 0.40788 1 2 cbr 210 ------- 0 0.0 2.0 8 8
+ 0.41 0 1 cbr 210 ------- 0 0.0 2.0 15 15
- 0.41 0 1 cbr 210 ------- 0 0.0 2.0 15 15
- 0.41968 1 2 cbr 210 ------- 0 0.0 2.0 10 10
r 0.41968 0 1 cbr 210 ------- 0 0.0 2.0 12 12
+ 0.41968 1 2 cbr 210 ------- 0 0.0 2.0 12 12
+ 0.424 0 1 cbr 210 ------- 0 0.0 2.0 16 16
- 0.424 0 1 cbr 210 ------- 0 0.0 2.0 16 16
r 0.42468 1 2 cbr 210 ------- 0 0.0 2.0 9 9
r 0.43368 0 1 cbr 210 ------- 0 0.0 2.0 13 13
+ 0.43368 1 2 cbr 210 ------- 0 0.0 2.0 13 13
- 0.43648 1 2 cbr 210 ------- 0 0.0 2.0 11 11
+ 0.438 0 1 cbr 210 ------- 0 0.0 2.0 17 17
- 0.438 0 1 cbr 210 ------- 0 0.0 2.0 17 17
r 0.44148 1 2 cbr 210 ------- 0 0.0 2.0 10 10
r 0.44768 0 1 cbr 210 ------- 0 0.0 2.0 14 14
+ 0.44768 1 2 cbr 210 ------- 0 0.0 2.0 14 14
+ 0.452 0 1 cbr 210 ------- 0 0.0 2.0 18 18
- 0.452 0 1 cbr 210 ------- 0 0.0 2.0 18 18
- 0.45328 1 2 cbr 210 ------- 0 0.0 2.0 12 12
r 0.45828 1 2 cbr 210 ------- 0 0.0 2.0 11 11
r 0.46168 0 1 cbr 210 ------- 0 0.0 2.0 15 15
+ 0.46168 1 2 cbr 210 ------- 0 0.0 2.0 15 15
+ 0.466 0 1 cbr 210 ------- 0 0.0 2.0 19 19
- 0.466 0 1 cbr 210 ------- 0 0.0 2.0 19 19
- 0.47008 1 2 cbr 210 ------- 0 0.0 2.0 13 13
r 0.47508 1 2 cbr 210 ------- 0 0.0 2.0 12 12
r 0.47568 0 1 cbr 210 ------- 0 0.0 2.0 16 16
+ 0.47568 1 2 cbr 210 ------- 0 0.0 2.0 16 16
+ 0.48 0 1 cbr 210 ------- 0 0.0 2.0 20 20
- 0.48 0 1 cbr 210 ------- 0 0.0 2.0 20 20
- 0.48688 1 2 cbr 210 ------- 0 0.0 2.0 14 14
r 0.48968 0 1 cbr 210 ------- 0 0.0 2.0 17 17
+ 0.48968 1 2 cbr 210 ------- 0 0.0 2.0 17 17
r 0.49188 1 2 cbr 210 ------- 0 0.0 2.0 13 13
+ 0.494 0 1 cbr 210 ------- 0 0.0 2.0 21 21
- 0.494 0 1 cbr 210 ------- 0 0.0 2.0 21 21
- 0.50368 1 2 cbr 210 ------- 0 0.0 2.0 15 15
r 0.50368 0 1 cbr 210 ------- 0 0.0 2.0 18 18
+ 0.50368 1 2 cbr 210 ------- 0 0.0 2.0 18 18
+ 0.508 0 1 cbr 210 ------- 0 0.0 2.0 22 22
- 0.508 0 1 cbr 210 ------- 0 0.0 2.0 22 22
r 0.50868 1 2 cbr 210 ------- 0 0.0 2.0 14 14
r 0.51768 0 1 cbr 210 ------- 0 0.0 2.0 19 19
+ 0.51768 1 2 cbr 210 ------- 0 0.0 2.0 19 19
- 0.52048 1 2 cbr 210 ------- 0 0.0 2.0 16 16
+ 0.522 0 1 cbr 210 ------- 0 0.0 2.0 23 23
- 0.522 0 1 cbr 210 ------- 0 0.0 2.0 23 23
r 0.52548 1 2 cbr 210 ------- 0 0.0 2.0 15 15
r 0.53168 0 1 cbr 210 ------- 0 0.0 2.0 20 20
+ 0.53168 1 2 cbr 210 ------- 0 0.0 2.0 20 20
+ 0.536 0 1 cbr 210 ------- 0 0.0 2.0 24 24
- 0.536 0 1 cbr 210 ------- 0 0.0 2.0 24 24
- 0.53728 1 2 cbr 210 ------- 0 0.0 2.0 17 17
r 0.54228 1 2 cbr 210 ------- 0 0.0 2.0 16 16
r 0.54568 0 1 cbr 210 ------- 0 0.0 2.0 21 21
+ 0.54568 1 2 cbr 210 ------- 0 0.0 2.0 21 21
+ 0.55 0 1 cbr 210 ------- 0 0.0 2.0 25 25
- 0.55 0 1 cbr 210 ------- 0 0.0 2.0 25 25
- 0.55408 1 2 cbr 210 ------- 0 0.0 2.0 18 18
r 0.55908 1 2 cbr 210 ------- 0 0.0 2.0 17 17
r 0.55968 0 1 cbr 210 ------- 0 0.0 2.0 22 22
+ 0.55968 1 2 cbr 210 ------- 0 0.0 2.0 22 22
+ 0.564 0 1 cbr 210 ------- 0 0.0 2.0 26 26
- 0.564 0 1 cbr 210 ------- 0 0.0 2.0 26 26
- 0.57088 1 2 cbr 210 ------- 0 0.0 2.0 19 19
r 0.57368 0 1 cbr 210 ------- 0 0.0 2.0 23 23
+ 0.57368 1 2 cbr 210 ------- 0 0.0 2.0 23 23
r 0.57588 1 2 cbr 210 ------- 0 0.0 2.0 18 18
+ 0.578 0 1 cbr 210 ------- 0 0.0 2.0 27 27
- 0.578 0 1 cbr 210 ------- 0 0.0 2.0 27 27
- 0.58768 1 2 cbr 210 ------- 0 0.0 2.0 20 20
r 0.58768 0 1 cbr 210 ------- 0 0.0 2.0 24 24
+ 0.58768 1 2 cbr 210 ------- 0 0.0 2.0 24 24
+ 0.592 0 1 cbr 210 ------- 0 0.0 2.0 28 28
- 0.592 0 1 cbr 210 ------- 0 0.0 2.0 28 28
r 0.59268 1 2 cbr 210 ------- 0 0.0 2.0 19 19
r 0.60168 0 1 cbr 210 ------- 0 0.0 2.0 25 25
+ 0.60168 1 2 cbr 210 ------- 0 0.0 2.0 25 25
- 0.60448 1 2 cbr 210 ------- 0 0.0 2.0 21 21
+ 0.606 0 1 cbr 210 ------- 0 0.0 2.0 29 29
- 0.606 0 1 cbr 210 ------- 0 0.0 2.0 29 29
r 0.60948 1 2 cbr 210 ------- 0 0.0 2.0 20 20
r 0.61568 0 1 cbr 210 ------- 0 0.0 2.0 26 26
+ 0.61568 1 2 cbr 210 ------- 0 0.0 2.0 26 26
+ 0.62 0 1 cbr 210 ------- 0 0.0 2.0 30 30
- 0.62 0 1 cbr 210 ------- 0 0.0 2.0 30 30
- 0.62128 1 2 cbr 210 ------- 0 0.0 2.0 22 22
r 0.62628 1 2 cbr 210 ------- 0 0.0 2.0 21 21
r 0.62968 0 1 cbr 210 ------- 0 0.0 2.0 27 27
+ 0.62968 1 2 cbr 210 ------- 0 0.0 2.0 27 27
+ 0.634 0 1 cbr 210 ------- 0 0.0 2.0 31 31
- 0.634 0 1 cbr 210 ------- 0 0.0 2.0 31 31
- 0.63808 1 2 cbr 210 ------- 0 0.0 2.0 23 23
r 0.64308 1 2 cbr 210 ------- 0 0.0 2.0 22 22
r 0.64368 0 1 cbr 210 ------- 0 0.0 2.0 28 28
+ 0.64368 1 2 cbr 210 ------- 0 0.0 2.0 28 28
+ 0.648 0 1 cbr 210 ------- 0 0.0 2.0 32 32
- 0.648 0 1 cbr 210 ------- 0 0.0 2.0 32 32
- 0.65488 1 2 cbr 210 ------- 0 0.0 2.0 24 24
r 0.65768 0 1 cbr 210 ------- 0 0.0 2.0 29 29
+ 0.65768 1 2 cbr 210 ------- 0 0.0 2.0 29 29
r 0.65988 1 2 cbr 210 ------- 0 0.0 2.0 23 23
+ 0.662 0 1 cbr 210 ------- 0 0.0 2.0 33 33
- 0.662 0 1 cbr 210 ------- 0 0.0 2.0 33 33
- 0.67168 1 2 cbr 210 ------- 0 0.0 2.0 25 25
r 0.67168 0 1 cbr 210 ------- 0 0.0 2.0 30 30
+ 0.67168 1 2 cbr 210 ------- 0 0.0 2.0 30 30
+ 0.676 0 1 cbr 210 ------- 0 0.0 2.0 34 34
- 0.676 0 1 cbr 210 ------- 0 0.0 2.0 34 34
r 0.67668 1 2 cbr 210 ------- 0 0.0 2.0 24 24
r 0.68568 0 1 cbr 210 ------- 0 0.0 2.0 31 31
+ 0.68568 1 2 cbr 210 ------- 0 0.0 2.0 31 31
- 0.68848 1 2 cbr 210 ------- 0 0.0 2.0 26 26
+ 0.69 0 1 cbr 210 ------- 0 0.0 2.0 35 35
- 0.69 0 1 cbr 210 ------- 0 0.0 2.0 35 35
r 0.69348 1 2 cbr 210 ------- 0 0.0 2.0 25 25
r 0.69968 0 1 cbr 210 ------- 0 0.0 2.0 32 32
+ 0.69968 1 2 cbr 210 ------- 0 0.0 2.0 32 32
+ 0.704 0 1 cbr 210 ------- 0 0.0 2.0 36 36
- 0.704 0 1 cbr 210 ------- 0 0.0 2.0 36 36
- 0.70528 1 2 cbr 210 ------- 0 0.0 2.0 27 27
r 0.71028 1 2 cbr 210 ------- 0 0.0 2.0 26 26
r 0.71368 0 1 cbr 210 ------- 0 0.0 2.0 33 33
+ 0.71368 1 2 cbr 210 ------- 0 0.0 2.0 33 33
+ 0.718 0 1 cbr 210 ------- 0 0.0 2.0 37 37
- 0.718 0 1 cbr 210 ------- 0 0.0 2.0 37 37
- 0.72208 1 2 cbr 210 ------- 0 0.0 2.0 28 28
r 0.72708 1 2 cbr 210 ------- 0 0.0 2.0 27 27
r 0.72768 0 1 cbr 210 ------- 0 0.0 2.0 34 34
+ 0.72768 1 2 cbr 210 ------- 0 0.0 2.0 34 34
+ 0.732 0 1 cbr 210 ------- 0 0.0 2.0 38 38
- 0.732 0 1 cbr 210 ------- 0 0.0 2.0 38 38
- 0.73888 1 2 cbr 210 ------- 0 0.0 2.0 29 29
r 0.74168 0 1 cbr 210 ------- 0 0.0 2.0 35 35
+ 0.74168 1 2 cbr 210 ------- 0 0.0 2.0 35 35
r 0.74388 1 2 cbr 210 ------- 0 0.0 2.0 28 28
+ 0.746 0 1 cbr 210 ------- 0 0.0 2.0 39 39
- 0.746 0 1 cbr 210 ------- 0 0.0 2.0 39 39
r 0.75568 0 1 cbr 210 ------- 0 0.0 2.0 36 36
+ 0.75568 1 2 cbr 210 ------- 0 0.0 2.0 36 36
- 0.75568 1 2 cbr 210 ------- 0 0.0 2.0 30 30
+ 0.76 0 1 cbr 210 ------- 0 0.0 2.0 40 40
- 0.76 0 1 cbr 210 ------- 0 0.0 2.0 40 40
r 0.76068 1 2 cbr 210 ------- 0 0.0 2.0 29 29
r 0.76968 0 1 cbr 210 ------- 0 0.0 2.0 37 37
+ 0.76968 1 2 cbr 210 ------- 0 0.0 2.0 37 37
- 0.77248 1 2 cbr 210 ------- 0 0.0 2.0 31 31
+ 0.774 0 1 cbr 210 ------- 0 0.0 2.0 41 41
- 0.774 0 1 cbr 210 ------- 0 0.0 2.0 41 41
r 0.77748 1 2 cbr 210 ------- 0 0.0 2.0 30 30
r 0.78368 0 1 cbr 210 ------- 0 0.0 2.0 38 38
+ 0.78368 1 2 cbr 210 ------- 0 0.0 2.0 38 38
+ 0.788 0 1 cbr 210 ------- 0 0.0 2.0 42 42
- 0.788 0 1 cbr 210 ------- 0 0.0 2.0 42 42
- 0.78928 1 2 cbr 210 ------- 0 0.0 2.0 32 32
r 0.79428 1 2 cbr 210 ------- 0 0.0 2.0 31 31
r 0.79768 0 1 cbr 210 ------- 0 0.0 2.0 39 39
+ 0.79768 1 2 cbr 210 ------- 0 0.0 2.0 39 39
+ 0.802 0 1 cbr 210 ------- 0 0.0 2.0 43 43
- 0.802 0 1 cbr 210 ------- 0 0.0 2.0 43 43
- 0.80608 1 2 cbr 210 ------- 0 0.0 2.0 33 33
r 0.81108 1 2 cbr 210 ------- 0 0.0 2.0 32 32
r 0.81168 0 1 cbr 210 ------- 0 0.0 2.0 40 40
+ 0.81168 1 2 cbr 210 ------- 0 0.0 2.0 40 40
+ 0.816 0 1 cbr 210 ------- 0 0.0 2.0 44 44
- 0.816 0 1 cbr 210 ------- 0 0.0 2.0 44 44
- 0.82288 1 2 cbr 210 ------- 0 0.0 2.0 34 34
r 0.82568 0 1 cbr 210 ------- 0 0.0 2.0 41 41
+ 0.82568 1 2 cbr 210 ------- 0 0.0 2.0 41 41
r 0.82788 1 2 cbr 210 ------- 0 0.0 2.0 33 33
+ 0.83 0 1 cbr 210 ------- 0 0.0 2.0 45 45
- 0.83 0 1 cbr 210 ------- 0 0.0 2.0 45 45
r 0.83968 0 1 cbr 210 ------- 0 0.0 2.0 42 42
+ 0.83968 1 2 cbr 210 ------- 0 0.0 2.0 42 42
- 0.83968 1 2 cbr 210 ------- 0 0.0 2.0 35 35
+ 0.844 0 1 cbr 210 ------- 0 0.0 2.0 46 46
- 0.844 0 1 cbr 210 ------- 0 0.0 2.0 46 46
r 0.84468 1 2 cbr 210 ------- 0 0.0 2.0 34 34
r 0.85368 0 1 cbr 210 ------- 0 0.0 2.0 43 43
+ 0.85368 1 2 cbr 210 ------- 0 0.0 2.0 43 43
- 0.85648 1 2 cbr 210 ------- 0 0.0 2.0 36 36
+ 0.858 0 1 cbr 210 ------- 0 0.0 2.0 47 47
- 0.858 0 1 cbr 210 ------- 0 0.0 2.0 47 47
r 0.86148 1 2 cbr 210 ------- 0 0.0 2.0 35 35
r 0.86768 0 1 cbr 210 ------- 0 0.0 2.0 44 44
+ 0.86768 1 2 cbr 210 ------- 0 0.0 2.0 44 44
+ 0.872 0 1 cbr 210 ------- 0 0.0 2.0 48 48
- 0.872 0 1 cbr 210 ------- 0 0.0 2.0 48 48
- 0.87328 1 2 cbr 210 ------- 0 0.0 2.0 37 37
r 0.87828 1 2 cbr 210 ------- 0 0.0 2.0 36 36
r 0.88168 0 1 cbr 210 ------- 0 0.0 2.0 45 45
+ 0.88168 1 2 cbr 210 ------- 0 0.0 2.0 45 45
+ 0.886 0 1 cbr 210 ------- 0 0.0 2.0 49 49
- 0.886 0 1 cbr 210 ------- 0 0.0 2.0 49 49
- 0.89008 1 2 cbr 210 ------- 0 0.0 2.0 38 38
r 0.89508 1 2 cbr 210 ------- 0 0.0 2.0 37 37
r 0.89568 0 1 cbr 210 ------- 0 0.0 2.0 46 46
+ 0.89568 1 2 cbr 210 ------- 0 0.0 2.0 46 46
+ 0.9 0 1 cbr 210 ------- 0 0.0 2.0 50 50
- 0.9 0 1 cbr 210 ------- 0 0.0 2.0 50 50
- 0.90688 1 2 cbr 210 ------- 0 0.0 2.0 39 39
r 0.90968 0 1 cbr 210 ------- 0 0.0 2.0 47 47
+ 0.90968 1 2 cbr 210 ------- 0 0.0 2.0 47 47
r 0.91188 1 2 cbr 210 ------- 0 0.0 2.0 38 38
+ 0.914 0 1 cbr 210 ------- 0 0.0 2.0 51 51
- 0.914 0 1 cbr 210 ------- 0 0.0 2.0 51 51
r 0.92368 0 1 cbr 210 ------- 0 0.0 2.0 48 48
+ 0.92368 1 2 cbr 210 ------- 0 0.0 2.0 48 48
- 0.92368 1 2 cbr 210 ------- 0 0.0 2.0 40 40
+ 0.928 0 1 cbr 210 ------- 0 0.0 2.0 52 52
- 0.928 0 1 cbr 210 ------- 0 0.0 2.0 52 52
r 0.92868 1 2 cbr 210 ------- 0 0.0 2.0 39 39
r 0.93768 0 1 cbr 210 ------- 0 0.0 2.0 49 49
+ 0.93768 1 2 cbr 210 ------- 0 0.0 2.0 49 49
- 0.94048 1 2 cbr 210 ------- 0 0.0 2.0 41 41
+ 0.942 0 1 cbr 210 ------- 0 0.0 2.0 53 53
- 0.942 0 1 cbr 210 ------- 0 0.0 2.0 53 53
r 0.94548 1 2 cbr 210 ------- 0 0.0 2.0 40 40
r 0.95168 0 1 cbr 210 ------- 0 0.0 2.0 50 50
+ 0.95168 1 2 cbr 210 ------- 0 0.0 2.0 50 50
+ 0.956 0 1 cbr 210 ------- 0 0.0 2.0 54 54
- 0.956 0 1 cbr 210 ------- 0 0.0 2.0 54 54
- 0.95728 1 2 cbr 210 ------- 0 0.0 2.0 42 42
r 0.96228 1 2 cbr 210 ------- 0 0.0 2.0 41 41
r 0.96568 0 1 cbr 210 ------- 0 0.0 2.0 51 51
+ 0.96568 1 2 cbr 210 ------- 0 0.0 2.0 51 51
+ 0.97 0 1 cbr 210 ------- 0 0.0 2.0 55 55
- 0.97 0 1 cbr 210 ------- 0 0.0 2.0 55 55
- 0.97408 1 2 cbr 210 ------- 0 0.0 2.0 43 43
r 0.97908 1 2 cbr 210 ------- 0 0.0 2.0 42 42
r 0.97968 0 1 cbr 210 ------- 0 0.0 2.0 52 52
+ 0.97968 1 2 cbr 210 ------- 0 0.0 2.0 52 52
+ 0.984 0 1 cbr 210 ------- 0 0.0 2.0 56 56
- 0.984 0 1 cbr 210 ------- 0 0.0 2.0 56 56
- 0.99088 1 2 cbr 210 ------- 0 0.0 2.0 44 44
r 0.99368 0 1 cbr 210 ------- 0 0.0 2.0 53 53
+ 0.99368 1 2 cbr 210 ------- 0 0.0 2.0 53 53
r 0.99588 1 2 cbr 210 ------- 0 0.0 2.0 43 43
+ 0.998 0 1 cbr 210 ------- 0 0.0 2.0 57 57
- 0.998 0 1 cbr 210 ------- 0 0.0 2.0 57 57
r 1.00768 0 1 cbr 210 ------- 0 0.0 2.0 54 54
+ 1.00768 1 2 cbr 210 ------- 0 0.0 2.0 54 54
d 1.00768 1 2 cbr 210 ------- 0 0.0 2.0 54 54
- 1.00768 1 2 cbr 210 ------- 0 0.0 2.0 45 45
+ 1.012 0 1 cbr 210 ------- 0 0.0 2.0 58 58
- 1.012 0 1 cbr 210 ------- 0 0.0 2.0 58 58
r 1.01268 1 2 cbr 210 ------- 0 0.0 2.0 44 44
r 1.02168 0 1 cbr 210 ------- 0 0.0 2.0 55 55
+ 1.02168 1 2 cbr 210 ------- 0 0.0 2.0 55 55
- 1.02448 1 2 cbr 210 ------- 0 0.0 2.0 46 46
+ 1.026 0 1 cbr 210 ------- 0 0.0 2.0 59 59
- 1.026 0 1 cbr 210 ------- 0 0.0 2.0 59 59
r 1.02948 1 2 cbr 210 ------- 0 0.0 2.0 45 45
r 1.03568 0 1 cbr 210 ------- 0 0.0 2.0 56 56
+ 1.03568 1 2 cbr 210 ------- 0 0.0 2.0 56 56
+ 1.04 0 1 cbr 210 ------- 0 0.0 2.0 60 60
- 1.04 0 1 cbr 210 ------- 0 0.0 2.0 60 60
- 1.04128 1 2 cbr 210 ------- 0 0.0 2.0 47 47
r 1.04628 1 2 cbr 210 ------- 0 0.0 2.0 46 46
r 1.04968 0 1 cbr 210 ------- 0 0.0 2.0 57 57
+ 1.04968 1 2 cbr 210 ------- 0 0.0 2.0 57 57
+ 1.054 0 1 cbr 210 ------- 0 0.0 2.0 61 61
- 1.054 0 1 cbr 210 ------- 0 0.0 2.0 61 61
- 1.05808 1 2 cbr 210 ------- 0 0.0 2.0 48 48
r 1.06308 1 2 cbr 210 ------- 0 0.0 2.0 47 47
r 1.06368 0 1 cbr 210 ------- 0 0.0 2.0 58 58
+ 1.06368 1 2 cbr 210 ------- 0 0.0 2.0 58 58
+ 1.068 0 1 cbr 210 ------- 0 0.0 2.0 62 62
- 1.068 0 1 cbr 210 ------- 0 0.0 2.0 62 62
- 1.07488 1 2 cbr 210 ------- 0 0.0 2.0 49 49
r 1.07768 0 1 cbr 210 ------- 0 0.0 2.0 59 59
+ 1.07768 1 2 cbr 210 ------- 0 0.0 2.0 59 59
r 1.07988 1 2 cbr 210 ------- 0 0.0 2.0 48 48
+ 1.082 0 1 cbr 210 ------- 0 0.0 2.0 63 63
- 1.082 0 1 cbr 210 ------- 0 0.0 2.0 63 63
- 1.09168 1 2 cbr 210 ------- 0 0.0 2.0 50 50
r 1.09168 0 1 cbr 210 ------- 0 0.0 2.0 60 60
+ 1.09168 1 2 cbr 210 ------- 0 0.0 2.0 60 60
+ 1.096 0 1 cbr 210 ------- 0 0.0 2.0 64 64
- 1.096 0 1 cbr 210 ------- 0 0.0 2.0 64 64
r 1.09668 1 2 cbr 210 ------- 0 0.0 2.0 49 49
r 1.10568 0 1 cbr 210 ------- 0 0.0 2.0 61 61
+ 1.10568 1 2 cbr 210 ------- 0 0.0 2.0 61 61
d 1.10568 1 2 cbr 210 ------- 0 0.0 2.0 61 61
- 1.10848 1 2 cbr 210 ------- 0 0.0 2.0 51 51
+ 1.11 0 1 cbr 210 ------- 0 0.0 2.0 65 65
- 1.11 0 1 cbr 210 ------- 0 0.0 2.0 65 65
r 1.11348 1 2 cbr 210 ------- 0 0.0 2.0 50 50
r 1.11968 0 1 cbr 210 ------- 0 0.0 2.0 62 62
+ 1.11968 1 2 cbr 210 ------- 0 0.0 2.0 62 62
+ 1.124 0 1 cbr 210 ------- 0 0.0 2.0 66 66
- 1.124 0 1 cbr 210 ------- 0 0.0 2.0 66 66
- 1.12528 1 2 cbr 210 ------- 0 0.0 2.0 52 52
r 1.13028 1 2 cbr 210 ------- 0 0.0 2.0 51 51
r 1.13368 0 1 cbr 210 ------- 0 0.0 2.0 63 63
+ 1.13368 1 2 cbr 210 ------- 0 0.0 2.0 63 63
+ 1.138 0 1 cbr 210 ------- 0 0.0 2.0 67 67
- 1.138 0 1 cbr 210 ------- 0 0.0 2.0 67 67
- 1.14208 1 2 cbr 210 ------- 0 0.0 2.0 53 53
r 1.14708 1 2 cbr 210 ------- 0 0.0 2.0 52 52
r 1.14768 0 1 cbr 210 ------- 0 0.0 2.0 64 64
+ 1.14768 1 2 cbr 210 ------- 0 0.0 2.0 64 64
+ 1.152 0 1 cbr 210 ------- 0 0.0 2.0 68 68
- 1.152 0 1 cbr 210 ------- 0 0.0 2.0 68 68
- 1.15888 1 2 cbr 210 ------- 0 0.0 2.0 55 55
r 1.16168 0 1 cbr 210 ------- 0 0.0 2.0 65 65
+ 1.16168 1 2 cbr 210 ------- 0 0.0 2.0 65 65
r 1.16388 1 2 cbr 210 ------- 0 0.0 2.0 53 53
+ 1.166 0 1 cbr 210 ------- 0 0.0 2.0 69 69
- 1.166 0 1 cbr 210 ------- 0 0.0 2.0 69 69
- 1.17568 1 2 cbr 210 ------- 0 0.0 2.0 56 56
r 1.17568 0 1 cbr 210 ------- 0 0.0 2.0 66 66
+ 1.17568 1 2 cbr 210 ------- 0 0.0 2.0 66 66
+ 1.18 0 1 cbr 210 ------- 0 0.0 2.0 70 70
- 1.18 0 1 cbr 210 ------- 0 0.0 2.0 70 70
r 1.18068 1 2 cbr 210 ------- 0 0.0 2.0 55 55
r 1.18968 0 1 cbr 210 ------- 0 0.0 2.0 67 67
+ 1.18968 1 2 cbr 210 ------- 0 0.0 2.0 67 67
d 1.18968 1 2 cbr 210 ------- 0 0.0 2.0 67 67
- 1.19248 1 2 cbr 210 ------- 0 0.0 2.0 57 57
+ 1.194 0 1 cbr 210 ------- 0 0.0 2.0 71 71
- 1.194 0 1 cbr 210 ------- 0 0.0 2.0 71 71
r 1.19748 1 2 cbr 210 ------- 0 0.0 2.0 56 56
r 1.20368 0 1 cbr 210 ------- 0 0.0 2.0 68 68
+ 1.20368 1 2 cbr 210 ------- 0 0.0 2.0 68 68
+ 1.208 0 1 cbr 210 ------- 0 0.0 2.0 72 72
- 1.208 0 1 cbr 210 ------- 0 0.0 2.0 72 72
- 1.20928 1 2 cbr 210 ------- 0 0.0 2.0 58 58
r 1.21428 1 2 cbr 210 ------- 0 0.0 2.0 57 57
r 1.21768 0 1 cbr 210 ------- 0 0.0 2.0 69 69
+ 1.21768 1 2 cbr 210 ------- 0 0.0 2.0 69 69
+ 1.222 0 1 cbr 210 ------- 0 0.0 2.0 73 73
- 1.222 0 1 cbr 210 ------- 0 0.0 2.0 73 73
- 1.22608 1 2 cbr 210 ------- 0 0.0 2.0 59 59
r 1.23108 1 2 cbr 210 ------- 0 0.0 2.0 58 58
r 1.23168 0 1 cbr 210 ------- 0 0.0 2.0 70 70
+ 1.23168 1 2 cbr 210 ------- 0 0.0 2.0 70 70
+ 1.236 0 1 cbr 210 ------- 0 0.0 2.0 74 74
- 1.236 0 1 cbr 210 ------- 0 0.0 2.0 74 74
- 1.24288 1 2 cbr 210 ------- 0 0.0 2.0 60 60
r 1.24568 0 1 cbr 210 ------- 0 0.0 2.0 71 71
+ 1.24568 1 2 cbr 210 ------- 0 0.0 2.0 71 71
r 1.24788 1 2 cbr 210 ------- 0 0.0 2.0 59 59
+ 1.25 0 1 cbr 210 ------- 0 0.0 2.0 75 75
- 1.25 0 1 cbr 210 ------- 0 0.0 2.0 75 75
- 1.25968 1 2 cbr 210 ------- 0 0.0 2.0 62 62
r 1.25968 0 1 cbr 210 ------- 0 0.0 2.0 72 72
+ 1.25968 1 2 cbr 210 ------- 0 0.0 2.0 72 72
+ 1.264 0 1 cbr 210 ------- 0 0.0 2.0 76 76
- 1.264 0 1 cbr 210 ------- 0 0.0 2.0 76 76
r 1.26468 1 2 cbr 210 ------- 0 0.0 2.0 60 60
r 1.27368 0 1 cbr 210 ------- 0 0.0 2.0 73 73
+ 1.27368 1 2 cbr 210 ------- 0 0.0 2.0 73 73
d 1.27368 1 2 cbr 210 ------- 0 0.0 2.0 73 73
- 1.27648 1 2 cbr 210 ------- 0 0.0 2.0 63 63
+ 1.278 0 1 cbr 210 ------- 0 0.0 2.0 77 77
- 1.278 0 1 cbr 210 ------- 0 0.0 2.0 77 77
r 1.28148 1 2 cbr 210 ------- 0 0.0 2.0 62 62
r 1.28768 0 1 cbr 210 ------- 0 0.0 2.0 74 74
+ 1.28768 1 2 cbr 210 ------- 0 0.0 2.0 74 74
+ 1.292 0 1 cbr 210 ------- 0 0.0 2.0 78 78
- 1.292 0 1 cbr 210 ------- 0 0.0 2.0 78 78
- 1.29328 1 2 cbr 210 ------- 0 0.0 2.0 64 64
r 1.29828 1 2 cbr 210 ------- 0 0.0 2.0 63 63
r 1.30168 0 1 cbr 210 ------- 0 0.0 2.0 75 75
+ 1.30168 1 2 cbr 210 ------- 0 0.0 2.0 75 75
+ 1.306 0 1 cbr 210 ------- 0 0.0 2.0 79 79
- 1.306 0 1 cbr 210 ------- 0 0.0 2.0 79 79
- 1.31008 1 2 cbr 210 ------- 0 0.0 2.0 65 65
r 1.31508 1 2 cbr 210 ------- 0 0.0 2.0 64 64
r 1.31568 0 1 cbr 210 ------- 0 0.0 2.0 76 76
+ 1.31568 1 2 cbr 210 ------- 0 0.0 2.0 76 76
+ 1.32 0 1 cbr 210 ------- 0 0.0 2.0 80 80
- 1.32 0 1 cbr 210 ------- 0 0.0 2.0 80 80
- 1.32688 1 2 cbr 210 ------- 0 0.0 2.0 66 66
r 1.32968 0 1 cbr 210 ------- 0 0.0 2.0 77 77
+ 1.32968 1 2 cbr 210 ------- 0 0.0 2.0 77 77
r 1.33188 1 2 cbr 210 ------- 0 0.0 2.0 65 65
+ 1.334 0 1 cbr 210 ------- 0 0.0 2.0 81 81
- 1.334 0 1 cbr 210 ------- 0 0.0 2.0 81 81
- 1.34368 1 2 cbr 210 ------- 0 0.0 2.0 68 68
r 1.34368 0 1 cbr 210 ------- 0 0.0 2.0 78 78
+ 1.34368 1 2 cbr 210 ------- 0 0.0 2.0 78 78
+ 1.348 0 1 cbr 210 ------- 0 0.0 2.0 82 82
- 1.348 0 1 cbr 210 ------- 0 0.0 2.0 82 82
r 1.34868 1 2 cbr 210 ------- 0 0.0 2.0 66 66
r 1.35768 0 1 cbr 210 ------- 0 0.0 2.0 79 79
+ 1.35768 1 2 cbr 210 ------- 0 0.0 2.0 79 79
d 1.35768 1 2 cbr 210 ------- 0 0.0 2.0 79 79
- 1.36048 1 2 cbr 210 ------- 0 0.0 2.0 69 69
+ 1.362 0 1 cbr 210 ------- 0 0.0 2.0 83 83
- 1.362 0 1 cbr 210 ------- 0 0.0 2.0 83 83
r 1.36548 1 2 cbr 210 ------- 0 0.0 2.0 68 68
r 1.37168 0 1 cbr 210 ------- 0 0.0 2.0 80 80
+ 1.37168 1 2 cbr 210 ------- 0 0.0 2.0 80 80
+ 1.376 0 1 cbr 210 ------- 0 0.0 2.0 84 84
- 1.376 0 1 cbr 210 ------- 0 0.0 2.0 84 84
- 1.37728 1 2 cbr 210 ------- 0 0.0 2.0 70 70
r 1.38228 1 2 cbr 210 ------- 0 0.0 2.0 69 69
r 1.38568 0 1 cbr 210 ------- 0 0.0 2.0 81 81
+ 1.38568 1 2 cbr 210 ------- 0 0.0 2.0 81 81
+ 1.39 0 1 cbr 210 ------- 0 0.0 2.0 85 85
- 1.39 0 1 cbr 210 ------- 0 0.0 2.0 85 85
- 1.39408 1 2 cbr 210 ------- 0 0.0 2.0 71 71
r 1.39908 1 2 cbr 210 ------- 0 0.0 2.0 70 70
r 1.39968 0 1 cbr 210 ------- 0 0.0 2.0 82 82
+ 1.39968 1 2 cbr 210 ------- 0 0.0 2.0 82 82
+ 1.404 0 1 cbr 210 ------- 0 0.0 2.0 86 86
- 1.404 0 1 cbr 210 ------- 0 0.0 2.0 86 86
- 1.41088 1 2 cbr 210 ------- 0 0.0 2.0 72 72
r 1.41368 0 1 cbr 210 ------- 0 0.0 2.0 83 83
+ 1.41368 1 2 cbr 210 ------- 0 0.0 2.0 83 83
r 1.41588 1 2 cbr 210 ------- 0 0.0 2.0 71 71
+ 1.418 0 1 cbr 210 ------- 0 0.0 2.0 87 87
- 1.418 0 1 cbr 210 ------- 0 0.0 2.0 87 87
- 1.42768 1 2 cbr 210 ------- 0 0.0 2.0 74 74
r 1.42768 0 1 cbr 210 ------- 0 0.0 2.0 84 84
+ 1.42768 1 2 cbr 210 ------- 0 0.0 2.0 84 84
+ 1.432 0 1 cbr 210 ------- 0 0.0 2.0 88 88
- 1.432 0 1 cbr 210 ------- 0 0.0 2.0 88 88
r 1.43268 1 2 cbr 210 ------- 0 0.0 2.0 72 72
r 1.44168 0 1 cbr 210 ------- 0 0.0 2.0 85 85
+ 1.44168 1 2 cbr 210 ------- 0 0.0 2.0 85 85
d 1.44168 1 2 cbr 210 ------- 0 0.0 2.0 85 85
- 1.44448 1 2 cbr 210 ------- 0 0.0 2.0 75 75
+ 1.446 0 1 cbr 210 ------- 0 0.0 2.0 89 89
- 1.446 0 1 cbr 210 ------- 0 0.0 2.0 89 89
r 1.44948 1 2 cbr 210 ------- 0 0.0 2.0 74 74
r 1.45568 0 1 cbr 210 ------- 0 0.0 2.0 86 86
+ 1.45568 1 2 cbr 210 ------- 0 0.0 2.0 86 86
+ 1.46 0 1 cbr 210 ------- 0 0.0 2.0 90 90
- 1.46 0 1 cbr 210 ------- 0 0.0 2.0 90 90
- 1.46128 1 2 cbr 210 ------- 0 0.0 2.0 76 76
r 1.46628 1 2 cbr 210 ------- 0 0.0 2.0 75 75
r 1.46968 0 1 cbr 210 ------- 0 0.0 2.0 87 87
+ 1.46968 1 2 cbr 210 ------- 0 0.0 2.0 87 87
+ 1.474 0 1 cbr 210 ------- 0 0.0 2.0 91 91
- 1.474 0 1 cbr 210 ------- 0 0.0 2.0 91 91
- 1.47808 1 2 cbr 210 ------- 0 0.0 2.0 77 77
r 1.48308 1 2 cbr 210 ------- 0 0.0 2.0 76 76
r 1.48368 0 1 cbr 210 ------- 0 0.0 2.0 88 88
+ 1.48368 1 2 cbr 210 ------- 0 0.0 2.0 88 88
+ 1.488 0 1 cbr 210 ------- 0 0.0 2.0 92 92
- 1.488 0 1 cbr 210 ------- 0 0.0 2.0 92 92
- 1.49488 1 2 cbr 210 ------- 0 0.0 2.0 78 78
r 1.49768 0 1 cbr 210 ------- 0 0.0 2.0 89 89
+ 1.49768 1 2 cbr 210 ------- 0 0.0 2.0 89 89
r 1.49988 1 2 cbr 210 ------- 0 0.0 2.0 77 77
+ 1.502 0 1 cbr 210 ------- 0 0.0 2.0 93 93
- 1.502 0 1 cbr 210 ------- 0 0.0 2.0 93 93
- 1.51168 1 2 cbr 210 ------- 0 0.0 2.0 80 80
r 1.51168 0 1 cbr 210 ------- 0 0.0 2.0 90 90
+ 1.51168 1 2 cbr 210 ------- 0 0.0 2.0 90 90
+ 1.516 0 1 cbr 210 ------- 0 0.0 2.0 94 94
- 1.516 0 1 cbr 210 ------- 0 0.0 2.0 94 94
r 1.51668 1 2 cbr 210 ------- 0 0.0 2.0 78 78
r 1.52568 0 1 cbr 210 ------- 0 0.0 2.0 91 91
+ 1.52568 1 2 cbr 210 ------- 0 0.0 2.0 91 91
d 1.52568 1 2 cbr 210 ------- 0 0.0 2.0 91 91
- 1.52848 1 2 cbr 210 ------- 0 0.0 2.0 81 81
+ 1.53 0 1 cbr 210 ------- 0 0.0 2.0 95 95
- 1.53 0 1 cbr 210 ------- 0 0.0 2.0 95 95
r 1.53348 1 2 cbr 210 ------- 0 0.0 2.0 80 80
r 1.53968 0 1 cbr 210 ------- 0 0.0 2.0 92 92
+ 1.53968 1 2 cbr 210 ------- 0 0.0 2.0 92 92
+ 1.544 0 1 cbr 210 ------- 0 0.0 2.0 96 96
- 1.544 0 1 cbr 210 ------- 0 0.0 2.0 96 96
- 1.54528 1 2 cbr 210 ------- 0 0.0 2.0 82 82
r 1.55028 1 2 cbr 210 ------- 0 0.0 2.0 81 81
r 1.55368 0 1 cbr 210 ------- 0 0.0 2.0 93 93
+ 1.55368 1 2 cbr 210 ------- 0 0.0 2.0 93 93
+ 1.558 0 1 cbr 210 ------- 0 0.0 2.0 97 97
- 1.558 0 1 cbr 210 ------- 0 0.0 2.0 97 97
- 1.56208 1 2 cbr 210 ------- 0 0.0 2.0 83 83
r 1.56708 1 2 cbr 210 ------- 0 0.0 2.0 82 82
r 1.56768 0 1 cbr 210 ------- 0 0.0 2.0 94 94
+ 1.56768 1 2 cbr 210 ------- 0 0.0 2.0 94 94
+ 1.572 0 1 cbr 210 ------- 0 0.0 2.0 98 98
- 1.572 0 1 cbr 210 ------- 0 0.0 2.0 98 98
- 1.57888 1 2 cbr 210 ------- 0 0.0 2.0 84 84
r 1.58168 0 1 cbr 210 ------- 0 0.0 2.0 95 95
+ 1.58168 1 2 cbr 210 ------- 0 0.0 2.0 95 95
r 1.58388 1 2 cbr 210 ------- 0 0.0 2.0 83 83
+ 1.586 0 1 cbr 210 ------- 0 0.0 2.0 99 99
- 1.586 0 1 cbr 210 ------- 0 0.0 2.0 99 99
- 1.59568 1 2 cbr 210 ------- 0 0.0 2.0 86 86
r 1.59568 0 1 cbr 210 ------- 0 0.0 2.0 96 96
+ 1.59568 1 2 cbr 210 ------- 0 0.0 2.0 96 96
+ 1.6 0 1 cbr 210 ------- 0 0.0 2.0 100 100
- 1.6 0 1 cbr 210 ------- 0 0.0 2.0 100 100
r 1.60068 1 2 cbr 210 ------- 0 0.0 2.0 84 84
r 1.60968 0 1 cbr 210 ------- 0 0.0 2.0 97 97
+ 1.60968 1 2 cbr 210 ------- 0 0.0 2.0 97 97
d 1.60968 1 2 cbr 210 ------- 0 0.0 2.0 97 97
- 1.61248 1 2 cbr 210 ------- 0 0.0 2.0 87 87
+ 1.614 0 1 cbr 210 ------- 0 0.0 2.0 101 101
- 1.614 0 1 cbr 210 ------- 0 0.0 2.0 101 101
r 1.61748 1 2 cbr 210 ------- 0 0.0 2.0 86 86
r 1.62368 0 1 cbr 210 ------- 0 0.0 2.0 98 98
+ 1.62368 1 2 cbr 210 ------- 0 0.0 2.0 98 98
+ 1.628 0 1 cbr 210 ------- 0 0.0 2.0 102 102
- 1.628 0 1 cbr 210 ------- 0 0.0 2.0 102 102
- 1.62928 1 2 cbr 210 ------- 0 0.0 2.0 88 88
r 1.63428 1 2 cbr 210 ------- 0 0.0 2.0 87 87
r 1.63768 0 1 cbr 210 ------- 0 0.0 2.0 99 99
+ 1.63768 1 2 cbr 210 ------- 0 0.0 2.0 99 99
+ 1.642 0 1 cbr 210 ------- 0 0.0 2.0 103 103
- 1.642 0 1 cbr 210 ------- 0 0.0 2.0 103 103
- 1.64608 1 2 cbr 210 ------- 0 0.0 2.0 89 89
r 1.65108 1 2 cbr 210 ------- 0 0.0 2.0 88 88
r 1.65168 0 1 cbr 210 ------- 0 0.0 2.0 100 100
+ 1.65168 1 2 cbr 210 ------- 0 0.0 2.0 100 100
+ 1.656 0 1 cbr 210 ------- 0 0.0 2.0 104 104
- 1.656 0 1 cbr 210 ------- 0 0.0 2.0 104 104
- 1.66288 1 2 cbr 210 ------- 0 0.0 2.0 90 90
r 1.66568 0 1 cbr 210 ------- 0 0.0 2.0 101 101
+ 1.66568 1 2 cbr 210 ------- 0 0.0 2.0 101 101
r 1.66788 1 2 cbr 210 ------- 0 0.0 2.0 89 89
+ 1.67 0 1 cbr 210 ------- 0 0.0 2.0 105 105
- 1.67 0 1 cbr 210 ------- 0 0.0 2.0 105 105
- 1.67968 1 2 cbr 210 ------- 0 0.0 2.0 92 92
r 1.67968 0 1 cbr 210 ------- 0 0.0 2.0 102 102
+ 1.67968 1 2 cbr 210 ------- 0 0.0 2.0 102 102
+ 1.684 0 1 cbr 210 ------- 0 0.0 2.0 106 106
- 1.684 0 1 cbr 210 ------- 0 0.0 2.0 106 106
r 1.68468 1 2 cbr 210 ------- 0 0.0 2.0 90 90
r 1.69368 0 1 cbr 210 ------- 0 0.0 2.0 103 103
+ 1.69368 1 2 cbr 210 ------- 0 0.0 2.0 103 103
d 1.69368 1 2 cbr 210 ------- 0 0.0 2.0 103 103
- 1.69648 1 2 cbr 210 ------- 0 0.0 2.0 93 93
+ 1.698 0 1 cbr 210 ------- 0 0.0 2.0 107 107
- 1.698 0 1 cbr 210 ------- 0 0.0 2.0 107 107
r 1.70148 1 2 cbr 210 ------- 0 0.0 2.0 92 92
r 1.70768 0 1 cbr 210 ------- 0 0.0 2.0 104 104
+ 1.70768 1 2 cbr 210 ------- 0 0.0 2.0 104 104
+ 1.712 0 1 cbr 210 ------- 0 0.0 2.0 108 108
- 1.712 0 1 cbr 210 ------- 0 0.0 2.0 108 108
- 1.71328 1 2 cbr 210 ------- 0 0.0 2.0 94 94
r 1.71828 1 2 cbr 210 ------- 0 0.0 2.0 93 93
r 1.72168 0 1 cbr 210 ------- 0 0.0 2.0 105 105
+ 1.72168 1 2 cbr 210 ------- 0 0.0 2.0 105 105
+ 1.726 0 1 cbr 210 ------- 0 0.0 2.0 109 109
- 1.726 0 1 cbr 210 ------- 0 0.0 2.0 109 109
- 1.73008 1 2 cbr 210 ------- 0 0.0 2.0 95 95
r 1.73508 1 2 cbr 210 ------- 0 0.0 2.0 94 94
r 1.73568 0 1 cbr 210 ------- 0 0.0 2.0 106 106
+ 1.73568 1 2 cbr 210 ------- 0 0.0 2.0 106 106
+ 1.74 0 1 cbr 210 ------- 0 0.0 2.0 110 110
- 1.74 0 1 cbr 210 ------- 0 0.0 2.0 110 110
- 1.74688 1 2 cbr 210 ------- 0 0.0 2.0 96 96
r 1.74968 0 1 cbr 210 ------- 0 0.0 2.0 107 107
+ 1.74968 1 2 cbr 210 ------- 0 0.0 2.0 107 107
r 1.75188 1 2 cbr 210 ------- 0 0.0 2.0 95 95
+ 1.754 0 1 cbr 210 ------- 0 0.0 2.0 111 111
- 1.754 0 1 cbr 210 ------- 0 0.0 2.0 111 111
- 1.76368 1 2 cbr 210 ------- 0 0.0 2.0 98 98
r 1.76368 0 1 cbr 210 ------- 0 0.0 2.0 108 108
+ 1.76368 1 2 cbr 210 ------- 0 0.0 2.0 108 108
+ 1.768 0 1 cbr 210 ------- 0 0.0 2.0 112 112
- 1.768 0 1 cbr 210 ------- 0 0.0 2.0 112 112
r 1.76868 1 2 cbr 210 ------- 0 0.0 2.0 96 96
r 1.77768 0 1 cbr 210 ------- 0 0.0 2.0 109 109
+ 1.77768 1 2 cbr 210 ------- 0 0.0 2.0 109 109
d 1.77768 1 2 cbr 210 ------- 0 0.0 2.0 109 109
- 1.78048 1 2 cbr 210 ------- 0 0.0 2.0 99 99
+ 1.782 0 1 cbr 210 ------- 0 0.0 2.0 113 113
- 1.782 0 1 cbr 210 ------- 0 0.0 2.0 113 113
r 1.78548 1 2 cbr 210 ------- 0 0.0 2.0 98 98
r 1.79168 0 1 cbr 210 ------- 0 0.0 2.0 110 110
+ 1.79168 1 2 cbr 210 ------- 0 0.0 2.0 110 110
+ 1.796 0 1 cbr 210 ------- 0 0.0 2.0 114 114
- 1.796 0 1 cbr 210 ------- 0 0.0 2.0 114 114
- 1.79728 1 2 cbr 210 ------- 0 0.0 2.0 100 100
r 1.80228 1 2 cbr 210 ------- 0 0.0 2.0 99 99
r 1.80568 0 1 cbr 210 ------- 0 0.0 2.0 111 111
+ 1.80568 1 2 cbr 210 ------- 0 0.0 2.0 111 111
+ 1.81 0 1 cbr 210 ------- 0 0.0 2.0 115 115
- 1.81 0 1 cbr 210 ------- 0 0.0 2.0 115 115
- 1.81408 1 2 cbr 210 ------- 0 0.0 2.0 101 101
r 1.81908 1 2 cbr 210 ------- 0 0.0 2.0 100 100
r 1.81968 0 1 cbr 210 ------- 0 0.0 2.0 112 112
+ 1.81968 1 2 cbr 210 ------- 0 0.0 2.0 112 112
+ 1.824 0 1 cbr 210 ------- 0 0.0 2.0 116 116
- 1.824 0 1 cbr 210 ------- 0 0.0 2.0 116 116
- 1.83088 1 2 cbr 210 ------- 0 0.0 2.0 102 102
r 1.83368 0 1 cbr 210 ------- 0 0.0 2.0 113 113
+ 1.83368 1 2 cbr 210 ------- 0 0.0 2.0 113 113
r 1.83588 1 2 cbr 210 ------- 0 0.0 2.0 101 101
+ 1.838 0 1 cbr 210 ------- 0 0.0 2.0 117 117
- 1.838 0 1 cbr 210 ------- 0 0.0 2.0 117 117