+ 0.2 0 1 cbr 210 ------- 0 0.0 2.0 0 0
- 0.2 0 1 cbr 210 ------- 0 0.0 2.0 0 0
+ 0.221 0 1 cbr 210 ------- 0 0.0 2.0 1 1
- 0.221 0 1 cbr 210 ------- 0 0.0 2.0 1 1
+ 0.242 0 1 cbr 210 ------- 0 0.0 2.0 2 2
- 0.242 0 1 cbr 210 ------- 0 0.0 2.0 2 2
r 0.25168 0 1 cbr 210 ------- 0 0.0 2.0 0 0
+ 0.25168 1 2 cbr 210 ------- 0 0.0 2.0 0 0
- 0.25168 1 2 cbr 210 ------- 0 0.0 2.0 0 0
+ 0.263 0 1 cbr 210 ------- 0 0.0 2.0 3 3
- 0.263 0 1 cbr 210 ------- 0 0.0 2.0 3 3
r 0.27268 0 1 cbr 210 ------- 0 0.0 2.0 1 1
+ 0.27268 1 2 cbr 210 ------- 0 0.0 2.0 1 1
- 0.27268 1 2 cbr 210 ------- 0 0.0 2.0 1 1
r 0.27348 1 2 cbr 210 ------- 0 0.0 2.0 0 0
+ 0.284 0 1 cbr 210 ------- 0 0.0 2.0 4 4
- 0.284 0 1 cbr 210 ------- 0 0.0 2.0 4 4
r 0.29368 0 1 cbr 210 ------- 0 0.0 2.0 2 2
+ 0.29368 1 2 cbr 210 ------- 0 0.0 2.0 2 2
- 0.29368 1 2 cbr 210 ------- 0 0.0 2.0 2 2
r 0.29448 1 2 cbr 210 ------- 0 0.0 2.0 1 1
+ 0.305 0 1 cbr 210 ------- 0 0.0 2.0 5 5
- 0.305 0 1 cbr 210 ------- 0 0.0 2.0 5 5
r 0.31468 0 1 cbr 210 ------- 0 0.0 2.0 3 3
+ 0.31468 1 2 cbr 210 ------- 0 0.0 2.0 3 3
- 0.31468 1 2 cbr 210 ------- 0 0.0 2.0 3 3
r 0.31548 1 2 cbr 210 ------- 0 0.0 2.0 2 2
+ 0.326 0 1 cbr 210 ------- 0 0.0 2.0 6 6
- 0.326 0 1 cbr 210 ------- 0 0.0 2.0 6 6
r 0.33568 0 1 cbr 210 ------- 0 0.0 2.0 4 4
+ 0.33568 1 2 cbr 210 ------- 0 0.0 2.0 4 4
- 0.33568 1 2 cbr 210 ------- 0 0.0 2.0 4 4
r 0.33648 1 2 cbr 210 ------- 0 0.0 2.0 3 3
+ 0.347 0 1 cbr 210 ------- 0 0.0 2.0 7 7
- 0.347 0 1 cbr 210 ------- 0 0.0 2.0 7 7
r 0.35668 0 1 cbr 210 ------- 0 0.0 2.0 5 5
+ 0.35668 1 2 cbr 210 ------- 0 0.0 2.0 5 5
- 0.35668 1 2 cbr 210 ------- 0 0.0 2.0 5 5
r 0.35748 1 2 cbr 210 ------- 0 0.0 2.0 4 4
+ 0.368 0 1 cbr 210 ------- 0 0.0 2.0 8 8
- 0.368 0 1 cbr 210 ------- 0 0.0 2.0 8 8
r 0.37768 0 1 cbr 210 ------- 0 0.0 2.0 6 6
+ 0.37768 1 2 cbr 210 ------- 0 0.0 2.0 6 6
- 0.37768 1 2 cbr 210 ------- 0 0.0 2.0 6 6
r 0.37848 1 2 cbr 210 ------- 0 0.0 2.0 5 5
+ 0.389 0 1 cbr 210 ------- 0 0.0 2.0 9 9
- 0.389 0 1 cbr 210 ------- 0 0.0 2.0 9 9
r 0.39868 0 1 cbr 210 ------- 0 0.0 2.0 7 7
+ 0.39868 1 2 cbr 210 ------- 0 0.0 2.0 7 7
- 0.39868 1 2 cbr 210 ------- 0 0.0 2.0 7 7
r 0.39948 1 2 cbr 210 ------- 0 0.0 2.0 6 6
+ 0.41 0 1 cbr 210 ------- 0 0.0 2.0 10 10
- 0.41 0 1 cbr 210 ------- 0 0.0 2.0 10 10
r 0.41968 0 1 cbr 210 ------- 0 0.0 2.0 8 8
+ 0.41968 1 2 cbr 210 ------- 0 0.0 2.0 8 8
- 0.41968 1 2 cbr 210 ------- 0 0.0 2.0 8 8
r 0.42048 1 2 cbr 210 ------- 0 0.0 2.0 7 7
+ 0.431 0 1 cbr 210 ------- 0 0.0 2.0 11 11
- 0.431 0 1 cbr 210 ------- 0 0.0 2.0 11 11
r 0.44068 0 1 cbr 210 ------- 0 0.0 2.0 9 9
+ 0.44068 1 2 cbr 210 ------- 0 0.0 2.0 9 9
- 0.44068 1 2 cbr 210 ------- 0 0.0 2.0 9 9
r 0.44148 1 2 cbr 210 ------- 0 0.0 2.0 8 8
+ 0.452 0 1 cbr 210 ------- 0 0.0 2.0 12 12
- 0.452 0 1 cbr 210 ------- 0 0.0 2.0 12 12
r 0.46168 0 1 cbr 210 ------- 0 0.0 2.0 10 10
+ 0.46168 1 2 cbr 210 ------- 0 0.0 2.0 10 10
- 0.46168 1 2 cbr 210 ------- 0 0.0 2.0 10 10
r 0.46248 1 2 cbr 210 ------- 0 0.0 2.0 9 9
+ 0.473 0 1 cbr 210 ------- 0 0.0 2.0 13 13
- 0.473 0 1 cbr 210 ------- 0 0.0 2.0 13 13
r 0.48268 0 1 cbr 210 ------- 0 0.0 2.0 11 11
+ 0.48268 1 2 cbr 210 ------- 0 0.0 2.0 11 11
- 0.48268 1 2 cbr 210 ------- 0 0.0 2.0 11 11
r 0.48348 1 2 cbr 210 ------- 0 0.0 2.0 10 10
+ 0.494 0 1 cbr 210 ------- 0 0.0 2.0 14 14
- 0.494 0 1 cbr 210 ------- 0 0.0 2.0 14 14
r 0.50368 0 1 cbr 210 ------- 0 0.0 2.0 12 12
+ 0.50368 1 2 cbr 210 ------- 0 0.0 2.0 12 12
- 0.50368 1 2 cbr 210 ------- 0 0.0 2.0 12 12
r 0.50448 1 2 cbr 210 ------- 0 0.0 2.0 11 11
+ 0.515 0 1 cbr 210 ------- 0 0.0 2.0 15 15
- 0.515 0 1 cbr 210 ------- 0 0.0 2.0 15 15
r 0.52468 0 1 cbr 210 ------- 0 0.0 2.0 13 13
+ 0.52468 1 2 cbr 210 ------- 0 0.0 2.0 13 13
- 0.52468 1 2 cbr 210 ------- 0 0.0 2.0 13 13
r 0.52548 1 2 cbr 210 ------- 0 0.0 2.0 12 12
+ 0.536 0 1 cbr 210 ------- 0 0.0 2.0 16 16
- 0.536 0 1 cbr 210 ------- 0 0.0 2.0 16 16
r 0.54568 0 1 cbr 210 ------- 0 0.0 2.0 14 14
+ 0.54568 1 2 cbr 210 ------- 0 0.0 2.0 14 14
- 0.54568 1 2 cbr 210 ------- 0 0.0 2.0 14 14
r 0.54648 1 2 cbr 210 ------- 0 0.0 2.0 13 13
+ 0.557 0 1 cbr 210 ------- 0 0.0 2.0 17 17
- 0.557 0 1 cbr 210 ------- 0 0.0 2.0 17 17
r 0.56668 0 1 cbr 210 ------- 0 0.0 2.0 15 15
+ 0.56668 1 2 cbr 210 ------- 0 0.0 2.0 15 15
- 0.56668 1 2 cbr 210 ------- 0 0.0 2.0 15 15
r 0.56748 1 2 cbr 210 ------- 0 0.0 2.0 14 14
+ 0.578 0 1 cbr 210 ------- 0 0.0 2.0 18 18
- 0.578 0 1 cbr 210 ------- 0 0.0 2.0 18 18
r 0.58768 0 1 cbr 210 ------- 0 0.0 2.0 16 16
+ 0.58768 1 2 cbr 210 ------- 0 0.0 2.0 16 16
- 0.58768 1 2 cbr 210 ------- 0 0.0 2.0 16 16
r 0.58848 1 2 cbr 210 ------- 0 0.0 2.0 15 15
+ 0.599 0 1 cbr 210 ------- 0 0.0 2.0 19 19
- 0.599 0 1 cbr 210 ------- 0 0.0 2.0 19 19
r 0.60868 0 1 cbr 210 ------- 0 0.0 2.0 17 17
+ 0.60868 1 2 cbr 210 ------- 0 0.0 2.0 17 17
- 0.60868 1 2 cbr 210 ------- 0 0.0 2.0 17 17
r 0.60948 1 2 cbr 210 ------- 0 0.0 2.0 16 16
+ 0.62 0 1 cbr 210 ------- 0 0.0 2.0 20 20
- 0.62 0 1 cbr 210 ------- 0 0.0 2.0 20 20
r 0.62968 0 1 cbr 210 ------- 0 0.0 2.0 18 18
+ 0.62968 1 2 cbr 210 ------- 0 0.0 2.0 18 18
- 0.62968 1 2 cbr 210 ------- 0 0.0 2.0 18 18
r 0.63048 1 2 cbr 210 ------- 0 0.0 2.0 17 17
+ 0.641 0 1 cbr 210 ------- 0 0.0 2.0 21 21
- 0.641 0 1 cbr 210 ------- 0 0.0 2.0 21 21
r 0.65068 0 1 cbr 210 ------- 0 0.0 2.0 19 19
+ 0.65068 1 2 cbr 210 ------- 0 0.0 2.0 19 19
- 0.65068 1 2 cbr 210 ------- 0 0.0 2.0 19 19
r 0.65148 1 2 cbr 210 ------- 0 0.0 2.0 18 18
+ 0.662 0 1 cbr 210 ------- 0 0.0 2.0 22 22
- 0.662 0 1 cbr 210 ------- 0 0.0 2.0 22 22
r 0.67168 0 1 cbr 210 ------- 0 0.0 2.0 20 20
+ 0.67168 1 2 cbr 210 ------- 0 0.0 2.0 20 20
- 0.67168 1 2 cbr 210 ------- 0 0.0 2.0 20 20
r 0.67248 1 2 cbr 210 ------- 0 0.0 2.0 19 19
+ 0.683 0 1 cbr 210 ------- 0 0.0 2.0 23 23
- 0.683 0 1 cbr 210 ------- 0 0.0 2.0 23 23
r 0.69268 0 1 cbr 210 ------- 0 0.0 2.0 21 21
+ 0.69268 1 2 cbr 210 ------- 0 0.0 2.0 21 21
- 0.69268 1 2 cbr 210 ------- 0 0.0 2.0 21 21
r 0.69348 1 2 cbr 210 ------- 0 0.0 2.0 20 20
+ 0.704 0 1 cbr 210 ------- 0 0.0 2.0 24 24
- 0.704 0 1 cbr 210 ------- 0 0.0 2.0 24 24
r 0.71368 0 1 cbr 210 ------- 0 0.0 2.0 22 22
+ 0.71368 1 2 cbr 210 ------- 0 0.0 2.0 22 22
- 0.71368 1 2 cbr 210 ------- 0 0.0 2.0 22 22
r 0.71448 1 2 cbr 210 ------- 0 0.0 2.0 21 21
+ 0.725 0 1 cbr 210 ------- 0 0.0 2.0 25 25
- 0.725 0 1 cbr 210 ------- 0 0.0 2.0 25 25
r 0.73468 0 1 cbr 210 ------- 0 0.0 2.0 23 23
+ 0.73468 1 2 cbr 210 ------- 0 0.0 2.0 23 23
- 0.73468 1 2 cbr 210 ------- 0 0.0 2.0 23 23
r 0.73548 1 2 cbr 210 ------- 0 0.0 2.0 22 22
+ 0.746 0 1 cbr 210 ------- 0 0.0 2.0 26 26
- 0.746 0 1 cbr 210 ------- 0 0.0 2.0 26 26
r 0.75568 0 1 cbr 210 ------- 0 0.0 2.0 24 24
+ 0.75568 1 2 cbr 210 ------- 0 0.0 2.0 24 24
- 0.75568 1 2 cbr 210 ------- 0 0.0 2.0 24 24
r 0.75648 1 2 cbr 210 ------- 0 0.0 2.0 23 23
+ 0.767 0 1 cbr 210 ------- 0 0.0 2.0 27 27
- 0.767 0 1 cbr 210 ------- 0 0.0 2.0 27 27
r 0.77668 0 1 cbr 210 ------- 0 0.0 2.0 25 25
+ 0.77668 1 2 cbr 210 ------- 0 0.0 2.0 25 25
- 0.77668 1 2 cbr 210 ------- 0 0.0 2.0 25 25
r 0.77748 1 2 cbr 210 ------- 0 0.0 2.0 24 24
+ 0.788 0 1 cbr 210 ------- 0 0.0 2.0 28 28
- 0.788 0 1 cbr 210 ------- 0 0.0 2.0 28 28
r 0.79768 0 1 cbr 210 ------- 0 0.0 2.0 26 26
+ 0.79768 1 2 cbr 210 ------- 0 0.0 2.0 26 26
- 0.79768 1 2 cbr 210 ------- 0 0.0 2.0 26 26
r 0.79848 1 2 cbr 210 ------- 0 0.0 2.0 25 25
+ 0.809 0 1 cbr 210 ------- 0 0.0 2.0 29 29
- 0.809 0 1 cbr 210 ------- 0 0.0 2.0 29 29
r 0.81868 0 1 cbr 210 ------- 0 0.0 2.0 27 27
+ 0.81868 1 2 cbr 210 ------- 0 0.0 2.0 27 27
- 0.81868 1 2 cbr 210 ------- 0 0.0 2.0 27 27
r 0.81948 1 2 cbr 210 ------- 0 0.0 2.0 26 26
+ 0.83 0 1 cbr 210 ------- 0 0.0 2.0 30 30
- 0.83 0 1 cbr 210 ------- 0 0.0 2.0 30 30
r 0.83968 0 1 cbr 210 ------- 0 0.0 2.0 28 28
+ 0.83968 1 2 cbr 210 ------- 0 0.0 2.0 28 28
- 0.83968 1 2 cbr 210 ------- 0 0.0 2.0 28 28
r 0.84048 1 2 cbr 210 ------- 0 0.0 2.0 27 27
+ 0.851 0 1 cbr 210 ------- 0 0.0 2.0 31 31
- 0.851 0 1 cbr 210 ------- 0 0.0 2.0 31 31
r 0.86068 0 1 cbr 210 ------- 0 0.0 2.0 29 29
+ 0.86068 1 2 cbr 210 ------- 0 0.0 2.0 29 29
- 0.86068 1 2 cbr 210 ------- 0 0.0 2.0 29 29
r 0.86148 1 2 cbr 210 ------- 0 0.0 2.0 28 28
+ 0.872 0 1 cbr 210 ------- 0 0.0 2.0 32 32
- 0.872 0 1 cbr 210 ------- 0 0.0 2.0 32 32
r 0.88168 0 1 cbr 210 ------- 0 0.0 2.0 30 30
+ 0.88168 1 2 cbr 210 ------- 0 0.0 2.0 30 30
- 0.88168 1 2 cbr 210 ------- 0 0.0 2.0 30 30
r 0.88248 1 2 cbr 210 ------- 0 0.0 2.0 29 29
+ 0.893 0 1 cbr 210 ------- 0 0.0 2.0 33 33
- 0.893 0 1 cbr 210 ------- 0 0.0 2.0 33 33
r 0.90268 0 1 cbr 210 ------- 0 0.0 2.0 31 31
+ 0.90268 1 2 cbr 210 ------- 0 0.0 2.0 31 31
- 0.90268 1 2 cbr 210 ------- 0 0.0 2.0 31 31
r 0.90348 1 2 cbr 210 ------- 0 0.0 2.0 30 30
+ 0.914 0 1 cbr 210 ------- 0 0.0 2.0 34 34
- 0.914 0 1 cbr 210 ------- 0 0.0 2.0 34 34
r 0.92368 0 1 cbr 210 ------- 0 0.0 2.0 32 32
+ 0.92368 1 2 cbr 210 ------- 0 0.0 2.0 32 32
- 0.92368 1 2 cbr 210 ------- 0 0.0 2.0 32 32
r 0.92448 1 2 cbr 210 ------- 0 0.0 2.0 31 31
+ 0.935 0 1 cbr 210 ------- 0 0.0 2.0 35 35
- 0.935 0 1 cbr 210 ------- 0 0.0 2.0 35 35
r 0.94468 0 1 cbr 210 ------- 0 0.0 2.0 33 33
+ 0.94468 1 2 cbr 210 ------- 0 0.0 2.0 33 33
- 0.94468 1 2 cbr 210 ------- 0 0.0 2.0 33 33
r 0.94548 1 2 cbr 210 ------- 0 0.0 2.0 32 32
+ 0.956 0 1 cbr 210 ------- 0 0.0 2.0 36 36
- 0.956 0 1 cbr 210 ------- 0 0.0 2.0 36 36
r 0.96568 0 1 cbr 210 ------- 0 0.0 2.0 34 34
+ 0.96568 1 2 cbr 210 ------- 0 0.0 2.0 34 34
- 0.96568 1 2 cbr 210 ------- 0 0.0 2.0 34 34
r 0.96648 1 2 cbr 210 ------- 0 0.0 2.0 33 33
+ 0.977 0 1 cbr 210 ------- 0 0.0 2.0 37 37
- 0.977 0 1 cbr 210 ------- 0 0.0 2.0 37 37
r 0.98668 0 1 cbr 210 ------- 0 0.0 2.0 35 35
+ 0.98668 1 2 cbr 210 ------- 0 0.0 2.0 35 35
- 0.98668 1 2 cbr 210 ------- 0 0.0 2.0 35 35
r 0.98748 1 2 cbr 210 ------- 0 0.0 2.0 34 34
+ 0.998 0 1 cbr 210 ------- 0 0.0 2.0 38 38
- 0.998 0 1 cbr 210 ------- 0 0.0 2.0 38 38
r 1.00768 0 1 cbr 210 ------- 0 0.0 2.0 36 36
+ 1.00768 1 2 cbr 210 ------- 0 0.0 2.0 36 36
- 1.00768 1 2 cbr 210 ------- 0 0.0 2.0 36 36
r 1.00848 1 2 cbr 210 ------- 0 0.0 2.0 35 35
+ 1.019 0 1 cbr 210 ------- 0 0.0 2.0 39 39
- 1.019 0 1 cbr 210 ------- 0 0.0 2.0 39 39
r 1.02868 0 1 cbr 210 ------- 0 0.0 2.0 37 37
+ 1.02868 1 2 cbr 210 ------- 0 0.0 2.0 37 37
- 1.02868 1 2 cbr 210 ------- 0 0.0 2.0 37 37
r 1.02948 1 2 cbr 210 ------- 0 0.0 2.0 36 36
+ 1.04 0 1 cbr 210 ------- 0 0.0 2.0 40 40
- 1.04 0 1 cbr 210 ------- 0 0.0 2.0 40 40
r 1.04968 0 1 cbr 210 ------- 0 0.0 2.0 38 38
+ 1.04968 1 2 cbr 210 ------- 0 0.0 2.0 38 38
- 1.04968 1 2 cbr 210 ------- 0 0.0 2.0 38 38
r 1.05048 1 2 cbr 210 ------- 0 0.0 2.0 37 37
+ 1.061 0 1 cbr 210 ------- 0 0.0 2.0 41 41
- 1.061 0 1 cbr 210 ------- 0 0.0 2.0 41 41
r 1.07068 0 1 cbr 210 ------- 0 0.0 2.0 39 39
+ 1.07068 1 2 cbr 210 ------- 0 0.0 2.0 39 39
- 1.07068 1 2 cbr 210 ------- 0 0.0 2.0 39 39
r 1.07148 1 2 cbr 210 ------- 0 0.0 2.0 38 38
+ 1.082 0 1 cbr 210 ------- 0 0.0 2.0 42 42
- 1.082 0 1 cbr 210 ------- 0 0.0 2.0 42 42
r 1.09168 0 1 cbr 210 ------- 0 0.0 2.0 40 40
+ 1.09168 1 2 cbr 210 ------- 0 0.0 2.0 40 40
- 1.09168 1 2 cbr 210 ------- 0 0.0 2.0 40 40
r 1.09248 1 2 cbr 210 ------- 0 0.0 2.0 39 39
+ 1.103 0 1 cbr 210 ------- 0 0.0 2.0 43 43
- 1.103 0 1 cbr 210 ------- 0 0.0 2.0 43 43
r 1.11268 0 1 cbr 210 ------- 0 0.0 2.0 41 41
+ 1.11268 1 2 cbr 210 ------- 0 0.0 2.0 41 41
- 1.11268 1 2 cbr 210 ------- 0 0.0 2.0 41 41
r 1.11348 1 2 cbr 210 ------- 0 0.0 2.0 40 40
+ 1.124 0 1 cbr 210 ------- 0 0.0 2.0 44 44
- 1.124 0 1 cbr 210 ------- 0 0.0 2.0 44 44
r 1.13368 0 1 cbr 210 ------- 0 0.0 2.0 42 42
+ 1.13368 1 2 cbr 210 ------- 0 0.0 2.0 42 42
- 1.13368 1 2 cbr 210 ------- 0 0.0 2.0 42 42
r 1.13448 1 2 cbr 210 ------- 0 0.0 2.0 41 41
+ 1.145 0 1 cbr 210 ------- 0 0.0 2.0 45 45
- 1.145 0 1 cbr 210 ------- 0 0.0 2.0 45 45
r 1.15468 0 1 cbr 210 ------- 0 0.0 2.0 43 43
+ 1.15468 1 2 cbr 210 ------- 0 0.0 2.0 43 43
- 1.15468 1 2 cbr 210 ------- 0 0.0 2.0 43 43
r 1.15548 1 2 cbr 210 ------- 0 0.0 2.0 42 42
+ 1.166 0 1 cbr 210 ------- 0 0.0 2.0 46 46
- 1.166 0 1 cbr 210 ------- 0 0.0 2.0 46 46
r 1.17568 0 1 cbr 210 ------- 0 0.0 2.0 44 44
+ 1.17568 1 2 cbr 210 ------- 0 0.0 2.0 44 44
- 1.17568 1 2 cbr 210 ------- 0 0.0 2.0 44 44
r 1.17648 1 2 cbr 210 ------- 0 0.0 2.0 43 43
+ 1.187 0 1 cbr 210 ------- 0 0.0 2.0 47 47
- 1.187 0 1 cbr 210 ------- 0 0.0 2.0 47 47
r 1.19668 0 1 cbr 210 ------- 0 0.0 2.0 45 45
+ 1.19668 1 2 cbr 210 ------- 0 0.0 2.0 45 45
- 1.19668 1 2 cbr 210 ------- 0 0.0 2.0 45 45
r 1.19748 1 2 cbr 210 ------- 0 0.0 2.0 44 44
+ 1.208 0 1 cbr 210 ------- 0 0.0 2.0 48 48
- 1.208 0 1 cbr 210 ------- 0 0.0 2.0 48 48
r 1.21768 0 1 cbr 210 ------- 0 0.0 2.0 46 46
+ 1.21768 1 2 cbr 210 ------- 0 0.0 2.0 46 46
- 1.21768 1 2 cbr 210 ------- 0 0.0 2.0 46 46
r 1.21848 1 2 cbr 210 ------- 0 0.0 2.0 45 45
+ 1.229 0 1 cbr 210 ------- 0 0.0 2.0 49 49
- 1.229 0 1 cbr 210 ------- 0 0.0 2.0 49 49
r 1.23868 0 1 cbr 210 ------- 0 0.0 2.0 47 47
+ 1.23868 1 2 cbr 210 ------- 0 0.0 2.0 47 47
- 1.23868 1 2 cbr 210 ------- 0 0.0 2.0 47 47
r 1.23948 1 2 cbr 210 ------- 0 0.0 2.0 46 46
+ 1.25 0 1 cbr 210 ------- 0 0.0 2.0 50 50
- 1.25 0 1 cbr 210 ------- 0 0.0 2.0 50 50
r 1.25968 0 1 cbr 210 ------- 0 0.0 2.0 48 48
+ 1.25968 1 2 cbr 210 ------- 0 0.0 2.0 48 48
- 1.25968 1 2 cbr 210 ------- 0 0.0 2.0 48 48
r 1.26048 1 2 cbr 210 ------- 0 0.0 2.0 47 47
+ 1.271 0 1 cbr 210 ------- 0 0.0 2.0 51 51
- 1.271 0 1 cbr 210 ------- 0 0.0 2.0 51 51
r 1.28068 0 1 cbr 210 ------- 0 0.0 2.0 49 49
+ 1.28068 1 2 cbr 210 ------- 0 0.0 2.0 49 49
- 1.28068 1 2 cbr 210 ------- 0 0.0 2.0 49 49
r 1.28148 1 2 cbr 210 ------- 0 0.0 2.0 48 48
+ 1.292 0 1 cbr 210 ------- 0 0.0 2.0 52 52
- 1.292 0 1 cbr 210 ------- 0 0.0 2.0 52 52
r 1.30168 0 1 cbr 210 ------- 0 0.0 2.0 50 50
+ 1.30168 1 2 cbr 210 ------- 0 0.0 2.0 50 50
- 1.30168 1 2 cbr 210 ------- 0 0.0 2.0 50 50
r 1.30248 1 2 cbr 210 ------- 0 0.0 2.0 49 49
+ 1.313 0 1 cbr 210 ------- 0 0.0 2.0 53 53
- 1.313 0 1 cbr 210 ------- 0 0.0 2.0 53 53
r 1.32268 0 1 cbr 210 ------- 0 0.0 2.0 51 51
+ 1.32268 1 2 cbr 210 ------- 0 0.0 2.0 51 51
- 1.32268 1 2 cbr 210 ------- 0 0.0 2.0 51 51
r 1.32348 1 2 cbr 210 ------- 0 0.0 2.0 50 50
+ 1.334 0 1 cbr 210 ------- 0 0.0 2.0 54 54
- 1.334 0 1 cbr 210 ------- 0 0.0 2.0 54 54
r 1.34368 0 1 cbr 210 ------- 0 0.0 2.0 52 52
+ 1.34368 1 2 cbr 210 ------- 0 0.0 2.0 52 52
- 1.34368 1 2 cbr 210 ------- 0 0.0 2.0 52 52
r 1.34448 1 2 cbr 210 ------- 0 0.0 2.0 51 51
+ 1.355 0 1 cbr 210 ------- 0 0.0 2.0 55 55
- 1.355 0 1 cbr 210 ------- 0 0.0 2.0 55 55
r 1.36468 0 1 cbr 210 ------- 0 0.0 2.0 53 53
+ 1.36468 1 2 cbr 210 ------- 0 0.0 2.0 53 53
- 1.36468 1 2 cbr 210 ------- 0 0.0 2.0 53 53
r 1.36548 1 2 cbr 210 ------- 0 0.0 2.0 52 52
+ 1.376 0 1 cbr 210 ------- 0 0.0 2.0 56 56
- 1.376 0 1 cbr 210 ------- 0 0.0 2.0 56 56
r 1.38568 0 1 cbr 210 ------- 0 0.0 2.0 54 54
+ 1.38568 1 2 cbr 210 ------- 0 0.0 2.0 54 54
- 1.38568 1 2 cbr 210 ------- 0 0.0 2.0 54 54
r 1.38648 1 2 cbr 210 ------- 0 0.0 2.0 53 53
+ 1.397 0 1 cbr 210 ------- 0 0.0 2.0 57 57
- 1.397 0 1 cbr 210 ------- 0 0.0 2.0 57 57
r 1.40668 0 1 cbr 210 ------- 0 0.0 2.0 55 55
+ 1.40668 1 2 cbr 210 ------- 0 0.0 2.0 55 55
- 1.40668 1 2 cbr 210 ------- 0 0.0 2.0 55 55
r 1.40748 1 2 cbr 210 ------- 0 0.0 2.0 54 54
+ 1.418 0 1 cbr 210 ------- 0 0.0 2.0 58 58
- 1.418 0 1 cbr 210 ------- 0 0.0 2.0 58 58
r 1.42768 0 1 cbr 210 ------- 0 0.0 2.0 56 56
+ 1.42768 1 2 cbr 210 ------- 0 0.0 2.0 56 56
- 1.42768 1 2 cbr 210 ------- 0 0.0 2.0 56 56
r 1.42848 1 2 cbr 210 ------- 0 0.0 2.0 55 55
+ 1.439 0 1 cbr 210 ------- 0 0.0 2.0 59 59
- 1.439 0 1 cbr 210 ------- 0 0.0 2.0 59 59
r 1.44868 0 1 cbr 210 ------- 0 0.0 2.0 57 57
+ 1.44868 1 2 cbr 210 ------- 0 0.0 2.0 57 57
- 1.44868 1 2 cbr 210 ------- 0 0.0 2.0 57 57
r 1.44948 1 2 cbr 210 ------- 0 0.0 2.0 56 56
+ 1.46 0 1 cbr 210 ------- 0 0.0 2.0 60 60
- 1.46 0 1 cbr 210 ------- 0 0.0 2.0 60 60
r 1.46968 0 1 cbr 210 ------- 0 0.0 2.0 58 58
+ 1.46968 1 2 cbr 210 ------- 0 0.0 2.0 58 58
- 1.46968 1 2 cbr 210 ------- 0 0.0 2.0 58 58
r 1.47048 1 2 cbr 210 ------- 0 0.0 2.0 57 57
+ 1.481 0 1 cbr 210 ------- 0 0.0 2.0 61 61
- 1.481 0 1 cbr 210 ------- 0 0.0 2.0 61 61
r 1.49068 0 1 cbr 210 ------- 0 0.0 2.0 59 59
+ 1.49068 1 2 cbr 210 ------- 0 0.0 2.0 59 59
- 1.49068 1 2 cbr 210 ------- 0 0.0 2.0 59 59
r 1.49148 1 2 cbr 210 ------- 0 0.0 2.0 58 58
+ 1.502 0 1 cbr 210 ------- 0 0.0 2.0 62 62
- 1.502 0 1 cbr 210 ------- 0 0.0 2.0 62 62
r 1.51168 0 1 cbr 210 ------- 0 0.0 2.0 60 60
+ 1.51168 1 2 cbr 210 ------- 0 0.0 2.0 60 60
- 1.51168 1 2 cbr 210 ------- 0 0.0 2.0 60 60
r 1.51248 1 2 cbr 210 ------- 0 0.0 2.0 59 59
+ 1.523 0 1 cbr 210 ------- 0 0.0 2.0 63 63
- 1.523 0 1 cbr 210 ------- 0 0.0 2.0 63 63
r 1.53268 0 1 cbr 210 ------- 0 0.0 2.0 61 61
+ 1.53268 1 2 cbr 210 ------- 0 0.0 2.0 61 61
- 1.53268 1 2 cbr 210 ------- 0 0.0 2.0 61 61
r 1.53348 1 2 cbr 210 ------- 0 0.0 2.0 60 60
+ 1.544 0 1 cbr 210 ------- 0 0.0 2.0 64 64
- 1.544 0 1 cbr 210 ------- 0 0.0 2.0 64 64
r 1.55368 0 1 cbr 210 ------- 0 0.0 2.0 62 62
+ 1.55368 1 2 cbr 210 ------- 0 0.0 2.0 62 62
- 1.55368 1 2 cbr 210 ------- 0 0.0 2.0 62 62
r 1.55448 1 2 cbr 210 ------- 0 0.0 2.0 61 61
+ 1.565 0 1 cbr 210 ------- 0 0.0 2.0 65 65
- 1.565 0 1 cbr 210 ------- 0 0.0 2.0 65 65
r 1.57468 0 1 cbr 210 ------- 0 0.0 2.0 63 63
+ 1.57468 1 2 cbr 210 ------- 0 0.0 2.0 63 63
- 1.57468 1 2 cbr 210 ------- 0 0.0 2.0 63 63
r 1.57548 1 2 cbr 210 ------- 0 0.0 2.0 62 62
+ 1.586 0 1 cbr 210 ------- 0 0.0 2.0 66 66
- 1.586 0 1 cbr 210 ------- 0 0.0 2.0 66 66
r 1.59568 0 1 cbr 210 ------- 0 0.0 2.0 64 64
+ 1.59568 1 2 cbr 210 ------- 0 0.0 2.0 64 64
- 1.59568 1 2 cbr 210 ------- 0 0.0 2.0 64 64
r 1.59648 1 2 cbr 210 ------- 0 0.0 2.0 63 63
+ 1.607 0 1 cbr 210 ------- 0 0.0 2.0 67 67
- 1.607 0 1 cbr 210 ------- 0 0.0 2.0 67 67
r 1.61668 0 1 cbr 210 ------- 0 0.0 2.0 65 65
+ 1.61668 1 2 cbr 210 ------- 0 0.0 2.0 65 65
- 1.61668 1 2 cbr 210 ------- 0 0.0 2.0 65 65
r 1.61748 1 2 cbr 210 ------- 0 0.0 2.0 64 64
+ 1.628 0 1 cbr 210 ------- 0 0.0 2.0 68 68
- 1.628 0 1 cbr 210 ------- 0 0.0 2.0 68 68
r 1.63768 0 1 cbr 210 ------- 0 0.0 2.0 66 66
+ 1.63768 1 2 cbr 210 ------- 0 0.0 2.0 66 66
- 1.63768 1 2 cbr 210 ------- 0 0.0 2.0 66 66
r 1.63848 1 2 cbr 210 ------- 0 0.0 2.0 65 65
+ 1.649 0 1 cbr 210 ------- 0 0.0 2.0 69 69
- 1.649 0 1 cbr 210 ------- 0 0.0 2.0 69 69
r 1.65868 0 1 cbr 210 ------- 0 0.0 2.0 67 67
+ 1.65868 1 2 cbr 210 ------- 0 0.0 2.0 67 67
- 1.65868 1 2 cbr 210 ------- 0 0.0 2.0 67 67
r 1.65948 1 2 cbr 210 ------- 0 0.0 2.0 66 66
+ 1.67 0 1 cbr 210 ------- 0 0.0 2.0 70 70
- 1.67 0 1 cbr 210 ------- 0 0.0 2.0 70 70
r 1.67968 0 1 cbr 210 ------- 0 0.0 2.0 68 68
+ 1.67968 1 2 cbr 210 ------- 0 0.0 2.0 68 68
- 1.67968 1 2 cbr 210 ------- 0 0.0 2.0 68 68
r 1.68048 1 2 cbr 210 ------- 0 0.0 2.0 67 67
+ 1.691 0 1 cbr 210 ------- 0 0.0 2.0 71 71
- 1.691 0 1 cbr 210 ------- 0 0.0 2.0 71 71
r 1.70068 0 1 cbr 210 ------- 0 0.0 2.0 69 69
+ 1.70068 1 2 cbr 210 ------- 0 0.0 2.0 69 69
- 1.70068 1 2 cbr 210 ------- 0 0.0 2.0 69 69
r 1.70148 1 2 cbr 210 ------- 0 0.0 2.0 68 68
+ 1.712 0 1 cbr 210 ------- 0 0.0 2.0 72 72
- 1.712 0 1 cbr 210 ------- 0 0.0 2.0 72 72
r 1.72168 0 1 cbr 210 ------- 0 0.0 2.0 70 70
+ 1.72168 1 2 cbr 210 ------- 0 0.0 2.0 70 70
- 1.72168 1 2 cbr 210 ------- 0 0.0 2.0 70 70
r 1.72248 1 2 cbr 210 ------- 0 0.0 2.0 69 69
+ 1.733 0 1 cbr 210 ------- 0 0.0 2.0 73 73
- 1.733 0 1 cbr 210 ------- 0 0.0 2.0 73 73
r 1.74268 0 1 cbr 210 ------- 0 0.0 2.0 71 71
+ 1.74268 1 2 cbr 210 ------- 0 0.0 2.0 71 71
- 1.74268 1 2 cbr 210 ------- 0 0.0 2.0 71 71
r 1.74348 1 2 cbr 210 ------- 0 0.0 2.0 70 70
+ 1.754 0 1 cbr 210 ------- 0 0.0 2.0 74 74
- 1.754 0 1 cbr 210 ------- 0 0.0 2.0 74 74
r 1.76368 0 1 cbr 210 ------- 0 0.0 2.0 72 72
+ 1.76368 1 2 cbr 210 ------- 0 0.0 2.0 72 72
- 1.76368 1 2 cbr 210 ------- 0 0.0 2.0 72 72
r 1.76448 1 2 cbr 210 ------- 0 0.0 2.0 71 71
+ 1.775 0 1 cbr 210 ------- 0 0.0 2.0 75 75
- 1.775 0 1 cbr 210 ------- 0 0.0 2.0 75 75
r 1.78468 0 1 cbr 210 ------- 0 0.0 2.0 73 73
+ 1.78468 1 2 cbr 210 ------- 0 0.0 2.0 73 73
- 1.78468 1 2 cbr 210 ------- 0 0.0 2.0 73 73
r 1.78548 1 2 cbr 210 ------- 0 0.0 2.0 72 72
+ 1.796 0 1 cbr 210 ------- 0 0.0 2.0 76 76
- 1.796 0 1 cbr 210 ------- 0 0.0 2.0 76 76
r 1.80568 0 1 cbr 210 ------- 0 0.0 2.0 74 74
+ 1.80568 1 2 cbr 210 ------- 0 0.0 2.0 74 74
- 1.80568 1 2 cbr 210 ------- 0 0.0 2.0 74 74
r 1.80648 1 2 cbr 210 ------- 0 0.0 2.0 73 73
+ 1.817 0 1 cbr 210 ------- 0 0.0 2.0 77 77
- 1.817 0 1 cbr 210 ------- 0 0.0 2.0 77 77
r 1.82668 0 1 cbr 210 ------- 0 0.0 2.0 75 75
+ 1.82668 1 2 cbr 210 ------- 0 0.0 2.0 75 75
- 1.82668 1 2 cbr 210 ------- 0 0.0 2.0 75 75
r 1.82748 1 2 cbr 210 ------- 0 0.0 2.0 74 74
+ 1.838 0 1 cbr 210 ------- 0 0.0 2.0 78 78
- 1.838 0 1 cbr 210 ------- 0 0.0 2.0 78 78
r 1.84768 0 1 cbr 210 ------- 0 0.0 2.0 76 76
+ 1.84768 1 2 cbr 210 ------- 0 0.0 2.0 76 76
- 1.84768 1 2 cbr 210 ------- 0 0.0 2.0 76 76
r 1.84848 1 2 cbr 210 ------- 0 0.0 2.0 75 75
+ 1.859 0 1 cbr 210 ------- 0 0.0 2.0 79 79
- 1.859 0 1 cbr 210 ------- 0 0.0 2.0 79 79
r 1.86868 0 1 cbr 210 ------- 0 0.0 2.0 77 77
+ 1.86868 1 2 cbr 210 ------- 0 0.0 2.0 77 77
- 1.86868 1 2 cbr 210 ------- 0 0.0 2.0 77 77
r 1.86948 1 2 cbr 210 ------- 0 0.0 2.0 76 76
+ 1.88 0 1 cbr 210 ------- 0 0.0 2.0 80 80
- 1.88 0 1 cbr 210 ------- 0 0.0 2.0 80 80
r 1.88968 0 1 cbr 210 ------- 0 0.0 2.0 78 78
+ 1.88968 1 2 cbr 210 ------- 0 0.0 2.0 78 78
- 1.88968 1 2 cbr 210 ------- 0 0.0 2.0 78 78
r 1.89048 1 2 cbr 210 ------- 0 0.0 2.0 77 77
+ 1.901 0 1 cbr 210 ------- 0 0.0 2.0 81 81
- 1.901 0 1 cbr 210 ------- 0 0.0 2.0 81 81
r 1.91068 0 1 cbr 210 ------- 0 0.0 2.0 79 79
+ 1.91068 1 2 cbr 210 ------- 0 0.0 2.0 79 79
- 1.91068 1 2 cbr 210 ------- 0 0.0 2.0 79 79
r 1.91148 1 2 cbr 210 ------- 0 0.0 2.0 78 78
+ 1.922 0 1 cbr 210 ------- 0 0.0 2.0 82 82
- 1.922 0 1 cbr 210 ------- 0 0.0 2.0 82 82
r 1.93168 0 1 cbr 210 ------- 0 0.0 2.0 80 80
+ 1.93168 1 2 cbr 210 ------- 0 0.0 2.0 80 80
- 1.93168 1 2 cbr 210 ------- 0 0.0 2.0 80 80
r 1.93248 1 2 cbr 210 ------- 0 0.0 2.0 79 79
+ 1.943 0 1 cbr 210 ------- 0 0.0 2.0 83 83
- 1.943 0 1 cbr 210 ------- 0 0.0 2.0 83 83
r 1.95268 0 1 cbr 210 ------- 0 0.0 2.0 81 81
+ 1.95268 1 2 cbr 210 ------- 0 0.0 2.0 81 81
- 1.95268 1 2 cbr 210 ------- 0 0.0 2.0 81 81
r 1.95348 1 2 cbr 210 ------- 0 0.0 2.0 80 80
+ 1.964 0 1 cbr 210 ------- 0 0.0 2.0 84 84
- 1.964 0 1 cbr 210 ------- 0 0.0 2.0 84 84
r 1.97368 0 1 cbr 210 ------- 0 0.0 2.0 82 82
+ 1.97368 1 2 cbr 210 ------- 0 0.0 2.0 82 82
- 1.97368 1 2 cbr 210 ------- 0 0.0 2.0 82 82
r 1.97448 1 2 cbr 210 ------- 0 0.0 2.0 81 81
+ 1.985 0 1 cbr 210 ------- 0 0.0 2.0 85 85
- 1.985 0 1 cbr 210 ------- 0 0.0 2.0 85 85
r 1.99468 0 1 cbr 210 ------- 0 0.0 2.0 83 83
+ 1.99468 1 2 cbr 210 ------- 0 0.0 2.0 83 83
- 1.99468 1 2 cbr 210 ------- 0 0.0 2.0 83 83
r 1.99548 1 2 cbr 210 ------- 0 0.0 2.0 82 82
+ 2.006 0 1 cbr 210 ------- 0 0.0 2.0 86 86
- 2.006 0 1 cbr 210 ------- 0 0.0 2.0 86 86
r 2.01568 0 1 cbr 210 ------- 0 0.0 2.0 84 84
+ 2.01568 1 2 cbr 210 ------- 0 0.0 2.0 84 84
- 2.01568 1 2 cbr 210 ------- 0 0.0 2.0 84 84
r 2.01648 1 2 cbr 210 ------- 0 0.0 2.0 83 83
+ 2.027 0 1 cbr 210 ------- 0 0.0 2.0 87 87
- 2.027 0 1 cbr 210 ------- 0 0.0 2.0 87 87
r 2.03668 0 1 cbr 210 ------- 0 0.0 2.0 85 85
+ 2.03668 1 2 cbr 210 ------- 0 0.0 2.0 85 85
- 2.03668 1 2 cbr 210 ------- 0 0.0 2.0 85 85
r 2.03748 1 2 cbr 210 ------- 0 0.0 2.0 84 84
+ 2.048 0 1 cbr 210 ------- 0 0.0 2.0 88 88
- 2.048 0 1 cbr 210 ------- 0 0.0 2.0 88 88
r 2.05768 0 1 cbr 210 ------- 0 0.0 2.0 86 86
+ 2.05768 1 2 cbr 210 ------- 0 0.0 2.0 86 86
- 2.05768 1 2 cbr 210 ------- 0 0.0 2.0 86 86
r 2.05848 1 2 cbr 210 ------- 0 0.0 2.0 85 85
+ 2.069 0 1 cbr 210 ------- 0 0.0 2.0 89 89
- 2.069 0 1 cbr 210 ------- 0 0.0 2.0 89 89
r 2.07868 0 1 cbr 210 ------- 0 0.0 2.0 87 87
+ 2.07868 1 2 cbr 210 ------- 0 0.0 2.0 87 87
- 2.07868 1 2 cbr 210 ------- 0 0.0 2.0 87 87
r 2.07948 1 2 cbr 210 ------- 0 0.0 2.0 86 86
+ 2.09 0 1 cbr 210 ------- 0 0.0 2.0 90 90
- 2.09 0 1 cbr 210 ------- 0 0.0 2.0 90 90
r 2.09968 0 1 cbr 210 ------- 0 0.0 2.0 88 88
+ 2.09968 1 2 cbr 210 ------- 0 0.0 2.0 88 88
- 2.09968 1 2 cbr 210 ------- 0 0.0 2.0 88 88
r 2.10048 1 2 cbr 210 ------- 0 0.0 2.0 87 87
+ 2.111 0 1 cbr 210 ------- 0 0.0 2.0 91 91
- 2.111 0 1 cbr 210 ------- 0 0.0 2.0 91 91
r 2.12068 0 1 cbr 210 ------- 0 0.0 2.0 89 89
+ 2.12068 1 2 cbr 210 ------- 0 0.0 2.0 89 89
- 2.12068 1 2 cbr 210 ------- 0 0.0 2.0 89 89
r 2.12148 1 2 cbr 210 ------- 0 0.0 2.0 88 88
+ 2.132 0 1 cbr 210 ------- 0 0.0 2.0 92 92
- 2.132 0 1 cbr 210 ------- 0 0.0 2.0 92 92
r 2.14168 0 1 cbr 210 ------- 0 0.0 2.0 90 90
+ 2.14168 1 2 cbr 210 ------- 0 0.0 2.0 90 90
- 2.14168 1 2 cbr 210 ------- 0 0.0 2.0 90 90
r 2.14248 1 2 cbr 210 ------- 0 0.0 2.0 89 89
+ 2.153 0 1 cbr 210 ------- 0 0.0 2.0 93 93
- 2.153 0 1 cbr 210 ------- 0 0.0 2.0 93 93
r 2.16268 0 1 cbr 210 ------- 0 0.0 2.0 91 91
+ 2.16268 1 2 cbr 210 ------- 0 0.0 2.0 91 91
- 2.16268 1 2 cbr 210 ------- 0 0.0 2.0 91 91
r 2.16348 1 2 cbr 210 ------- 0 0.0 2.0 90 90
+ 2.174 0 1 cbr 210 ------- 0 0.0 2.0 94 94
- 2.174 0 1 cbr 210 ------- 0 0.0 2.0 94 94
r 2.18368 0 1 cbr 210 ------- 0 0.0 2.0 92 92
+ 2.18368 1 2 cbr 210 ------- 0 0.0 2.0 92 92
- 2.18368 1 2 cbr 210 ------- 0 0.0 2.0 92 92
r 2.18448 1 2 cbr 210 ------- 0 0.0 2.0 91 91
+ 2.195 0 1 cbr 210 ------- 0 0.0 2.0 95 95
- 2.195 0 1 cbr 210 ------- 0 0.0 2.0 95 95
r 2.20468 0 1 cbr 210 ------- 0 0.0 2.0 93 93
+ 2.20468 1 2 cbr 210 ------- 0 0.0 2.0 93 93
- 2.20468 1 2 cbr 210 ------- 0 0.0 2.0 93 93
r 2.20548 1 2 cbr 210 ------- 0 0.0 2.0 92 92
+ 2.216 0 1 cbr 210 ------- 0 0.0 2.0 96 96
- 2.216 0 1 cbr 210 ------- 0 0.0 2.0 96 96
r 2.22568 0 1 cbr 210 ------- 0 0.0 2.0 94 94
+ 2.22568 1 2 cbr 210 ------- 0 0.0 2.0 94 94
- 2.22568 1 2 cbr 210 ------- 0 0.0 2.0 94 94
r 2.22648 1 2 cbr 210 ------- 0 0.0 2.0 93 93
+ 2.237 0 1 cbr 210 ------- 0 0.0 2.0 97 97
- 2.237 0 1 cbr 210 ------- 0 0.0 2.0 97 97
r 2.24668 0 1 cbr 210 ------- 0 0.0 2.0 95 95
+ 2.24668 1 2 cbr 210 ------- 0 0.0 2.0 95 95
- 2.24668 1 2 cbr 210 ------- 0 0.0 2.0 95 95
r 2.24748 1 2 cbr 210 ------- 0 0.0 2.0 94 94
+ 2.258 0 1 cbr 210 ------- 0 0.0 2.0 98 98
- 2.258 0 1 cbr 210 ------- 0 0.0 2.0 98 98
r 2.26768 0 1 cbr 210 ------- 0 0.0 2.0 96 96
+ 2.26768 1 2 cbr 210 ------- 0 0.0 2.0 96 96
- 2.26768 1 2 cbr 210 ------- 0 0.0 2.0 96 96
r 2.26848 1 2 cbr 210 ------- 0 0.0 2.0 95 95
+ 2.279 0 1 cbr 210 ------- 0 0.0 2.0 99 99
- 2.279 0 1 cbr 210 ------- 0 0.0 2.0 99 99
r 2.28868 0 1 cbr 210 ------- 0 0.0 2.0 97 97
+ 2.28868 1 2 cbr 210 ------- 0 0.0 2.0 97 97
- 2.28868 1 2 cbr 210 ------- 0 0.0 2.0 97 97
r 2.28948 1 2 cbr 210 ------- 0 0.0 2.0 96 96
+ 2.3 0 1 cbr 210 ------- 0 0.0 2.0 100 100
- 2.3 0 1 cbr 210 ------- 0 0.0 2.0 100 100
r 2.30968 0 1 cbr 210 ------- 0 0.0 2.0 98 98
+ 2.30968 1 2 cbr 210 ------- 0 0.0 2.0 98 98
- 2.30968 1 2 cbr 210 ------- 0 0.0 2.0 98 98
r 2.31048 1 2 cbr 210 ------- 0 0.0 2.0 97 97
+ 2.321 0 1 cbr 210 ------- 0 0.0 2.0 101 101
- 2.321 0 1 cbr 210 ------- 0 0.0 2.0 101 101
r 2.33068 0 1 cbr 210 ------- 0 0.0 2.0 99 99
+ 2.33068 1 2 cbr 210 ------- 0 0.0 2.0 99 99
- 2.33068 1 2 cbr 210 ------- 0 0.0 2.0 99 99
r 2.33148 1 2 cbr 210 ------- 0 0.0 2.0 98 98
+ 2.342 0 1 cbr 210 ------- 0 0.0 2.0 102 102
- 2.342 0 1 cbr 210 ------- 0 0.0 2.0 102 102
r 2.35168 0 1 cbr 210 ------- 0 0.0 2.0 100 100
+ 2.35168 1 2 cbr 210 ------- 0 0.0 2.0 100 100
- 2.35168 1 2 cbr 210 ------- 0 0.0 2.0 100 100
r 2.35248 1 2 cbr 210 ------- 0 0.0 2.0 99 99
+ 2.363 0 1 cbr 210 ------- 0 0.0 2.0 103 103
- 2.363 0 1 cbr 210 ------- 0 0.0 2.0 103 103
r 2.37268 0 1 cbr 210 ------- 0 0.0 2.0 101 101
+ 2.37268 1 2 cbr 210 ------- 0 0.0 2.0 101 101
- 2.37268 1 2 cbr 210 ------- 0 0.0 2.0 101 101
r 2.37348 1 2 cbr 210 ------- 0 0.0 2.0 100 100
+ 2.384 0 1 cbr 210 ------- 0 0.0 2.0 104 104
- 2.384 0 1 cbr 210 ------- 0 0.0 2.0 104 104
r 2.39368 0 1 cbr 210 ------- 0 0.0 2.0 102 102
+ 2.39368 1 2 cbr 210 ------- 0 0.0 2.0 102 102
- 2.39368 1 2 cbr 210 ------- 0 0.0 2.0 102 102
r 2.39448 1 2 cbr 210 ------- 0 0.0 2.0 101 101
+ 2.405 0 1 cbr 210 ------- 0 0.0 2.0 105 105
- 2.405 0 1 cbr 210 ------- 0 0.0 2.0 105 105
r 2.41468 0 1 cbr 210 ------- 0 0.0 2.0 103 103
+ 2.41468 1 2 cbr 210 ------- 0 0.0 2.0 103 103
- 2.41468 1 2 cbr 210 ------- 0 0.0 2.0 103 103
r 2.41548 1 2 cbr 210 ------- 0 0.0 2.0 102 102
+ 2.426 0 1 cbr 210 ------- 0 0.0 2.0 106 106
- 2.426 0 1 cbr 210 ------- 0 0.0 2.0 106 106
r 2.43568 0 1 cbr 210 ------- 0 0.0 2.0 104 104
+ 2.43568 1 2 cbr 210 ------- 0 0.0 2.0 104 104
- 2.43568 1 2 cbr 210 ------- 0 0.0 2.0 104 104
r 2.43648 1 2 cbr 210 ------- 0 0.0 2.0 103 103
+ 2.447 0 1 cbr 210 ------- 0 0.0 2.0 107 107
- 2.447 0 1 cbr 210 ------- 0 0.0 2.0 107 107
r 2.45668 0 1 cbr 210 ------- 0 0.0 2.0 105 105
+ 2.45668 1 2 cbr 210 ------- 0 0.0 2.0 105 105
- 2.45668 1 2 cbr 210 ------- 0 0.0 2.0 105 105
r 2.45748 1 2 cbr 210 ------- 0 0.0 2.0 104 104
+ 2.468 0 1 cbr 210 ------- 0 0.0 2.0 108 108
- 2.468 0 1 cbr 210 ------- 0 0.0 2.0 108 108
r 2.47768 0 1 cbr 210 ------- 0 0.0 2.0 106 106
+ 2.47768 1 2 cbr 210 ------- 0 0.0 2.0 106 106
- 2.47768 1 2 cbr 210 ------- 0 0.0 2.0 106 106
r 2.47848 1 2 cbr 210 ------- 0 0.0 2.0 105 105
+ 2.489 0 1 cbr 210 ------- 0 0.0 2.0 109 109
- 2.489 0 1 cbr 210 ------- 0 0.0 2.0 109 109
r 2.49868 0 1 cbr 210 ------- 0 0.0 2.0 107 107
+ 2.49868 1 2 cbr 210 ------- 0 0.0 2.0 107 107
- 2.49868 1 2 cbr 210 ------- 0 0.0 2.0 107 107
r 2.49948 1 2 cbr 210 ------- 0 0.0 2.0 106 106
+ 2.51 0 1 cbr 210 ------- 0 0.0 2.0 110 110
- 2.51 0 1 cbr 210 ------- 0 0.0 2.0 110 110
r 2.51968 0 1 cbr 210 ------- 0 0.0 2.0 108 108
+ 2.51968 1 2 cbr 210 ------- 0 0.0 2.0 108 108
- 2.51968 1 2 cbr 210 ------- 0 0.0 2.0 108 108
r 2.52048 1 2 cbr 210 ------- 0 0.0 2.0 107 107
+ 2.531 0 1 cbr 210 ------- 0 0.0 2.0 111 111
- 2.531 0 1 cbr 210 ------- 0 0.0 2.0 111 111
r 2.54068 0 1 cbr 210 ------- 0 0.0 2.0 109 109
+ 2.54068 1 2 cbr 210 ------- 0 0.0 2.0 109 109
- 2.54068 1 2 cbr 210 ------- 0 0.0 2.0 109 109