+ 0.2 0 1 cbr 210 ------- 0 0.0 2.0 0 0
- 0.2 0 1 cbr 210 ------- 0 0.0 2.0 0 0
+ 0.242 0 1 cbr 210 ------- 0 0.0 2.0 1 1
- 0.242 0 1 cbr 210 ------- 0 0.0 2.0 1 1
r 0.25168 0 1 cbr 210 ------- 0 0.0 2.0 0 0
+ 0.25168 1 2 cbr 210 ------- 0 0.0 2.0 0 0
- 0.25168 1 2 cbr 210 ------- 0 0.0 2.0 0 0
r 0.27348 1 2 cbr 210 ------- 0 0.0 2.0 0 0
+ 0.284 0 1 cbr 210 ------- 0 0.0 2.0 2 2
- 0.284 0 1 cbr 210 ------- 0 0.0 2.0 2 2
r 0.29368 0 1 cbr 210 ------- 0 0.0 2.0 1 1
+ 0.29368 1 2 cbr 210 ------- 0 0.0 2.0 1 1
- 0.29368 1 2 cbr 210 ------- 0 0.0 2.0 1 1
r 0.31548 1 2 cbr 210 ------- 0 0.0 2.0 1 1
+ 0.326 0 1 cbr 210 ------- 0 0.0 2.0 3 3
- 0.326 0 1 cbr 210 ------- 0 0.0 2.0 3 3
r 0.33568 0 1 cbr 210 ------- 0 0.0 2.0 2 2
+ 0.33568 1 2 cbr 210 ------- 0 0.0 2.0 2 2
- 0.33568 1 2 cbr 210 ------- 0 0.0 2.0 2 2
r 0.35748 1 2 cbr 210 ------- 0 0.0 2.0 2 2
+ 0.368 0 1 cbr 210 ------- 0 0.0 2.0 4 4
- 0.368 0 1 cbr 210 ------- 0 0.0 2.0 4 4
r 0.37768 0 1 cbr 210 ------- 0 0.0 2.0 3 3
+ 0.37768 1 2 cbr 210 ------- 0 0.0 2.0 3 3
- 0.37768 1 2 cbr 210 ------- 0 0.0 2.0 3 3
r 0.39948 1 2 cbr 210 ------- 0 0.0 2.0 3 3
+ 0.41 0 1 cbr 210 ------- 0 0.0 2.0 5 5
- 0.41 0 1 cbr 210 ------- 0 0.0 2.0 5 5
r 0.41968 0 1 cbr 210 ------- 0 0.0 2.0 4 4
+ 0.41968 1 2 cbr 210 ------- 0 0.0 2.0 4 4
- 0.41968 1 2 cbr 210 ------- 0 0.0 2.0 4 4
r 0.44148 1 2 cbr 210 ------- 0 0.0 2.0 4 4
+ 0.452 0 1 cbr 210 ------- 0 0.0 2.0 6 6
- 0.452 0 1 cbr 210 ------- 0 0.0 2.0 6 6
r 0.46168 0 1 cbr 210 ------- 0 0.0 2.0 5 5
+ 0.46168 1 2 cbr 210 ------- 0 0.0 2.0 5 5
- 0.46168 1 2 cbr 210 ------- 0 0.0 2.0 5 5
r 0.48348 1 2 cbr 210 ------- 0 0.0 2.0 5 5
+ 0.494 0 1 cbr 210 ------- 0 0.0 2.0 7 7
- 0.494 0 1 cbr 210 ------- 0 0.0 2.0 7 7
r 0.50368 0 1 cbr 210 ------- 0 0.0 2.0 6 6
+ 0.50368 1 2 cbr 210 ------- 0 0.0 2.0 6 6
- 0.50368 1 2 cbr 210 ------- 0 0.0 2.0 6 6
r 0.52548 1 2 cbr 210 ------- 0 0.0 2.0 6 6
+ 0.536 0 1 cbr 210 ------- 0 0.0 2.0 8 8
- 0.536 0 1 cbr 210 ------- 0 0.0 2.0 8 8
r 0.54568 0 1 cbr 210 ------- 0 0.0 2.0 7 7
+ 0.54568 1 2 cbr 210 ------- 0 0.0 2.0 7 7
- 0.54568 1 2 cbr 210 ------- 0 0.0 2.0 7 7
r 0.56748 1 2 cbr 210 ------- 0 0.0 2.0 7 7
+ 0.578 0 1 cbr 210 ------- 0 0.0 2.0 9 9
- 0.578 0 1 cbr 210 ------- 0 0.0 2.0 9 9
r 0.58768 0 1 cbr 210 ------- 0 0.0 2.0 8 8
+ 0.58768 1 2 cbr 210 ------- 0 0.0 2.0 8 8
- 0.58768 1 2 cbr 210 ------- 0 0.0 2.0 8 8
r 0.60948 1 2 cbr 210 ------- 0 0.0 2.0 8 8
+ 0.62 0 1 cbr 210 ------- 0 0.0 2.0 10 10
- 0.62 0 1 cbr 210 ------- 0 0.0 2.0 10 10
r 0.62968 0 1 cbr 210 ------- 0 0.0 2.0 9 9
+ 0.62968 1 2 cbr 210 ------- 0 0.0 2.0 9 9
- 0.62968 1 2 cbr 210 ------- 0 0.0 2.0 9 9
r 0.65148 1 2 cbr 210 ------- 0 0.0 2.0 9 9
+ 0.662 0 1 cbr 210 ------- 0 0.0 2.0 11 11
- 0.662 0 1 cbr 210 ------- 0 0.0 2.0 11 11
r 0.67168 0 1 cbr 210 ------- 0 0.0 2.0 10 10
+ 0.67168 1 2 cbr 210 ------- 0 0.0 2.0 10 10
- 0.67168 1 2 cbr 210 ------- 0 0.0 2.0 10 10
r 0.69348 1 2 cbr 210 ------- 0 0.0 2.0 10 10
+ 0.704 0 1 cbr 210 ------- 0 0.0 2.0 12 12
- 0.704 0 1 cbr 210 ------- 0 0.0 2.0 12 12
r 0.71368 0 1 cbr 210 ------- 0 0.0 2.0 11 11
+ 0.71368 1 2 cbr 210 ------- 0 0.0 2.0 11 11
- 0.71368 1 2 cbr 210 ------- 0 0.0 2.0 11 11
r 0.73548 1 2 cbr 210 ------- 0 0.0 2.0 11 11
+ 0.746 0 1 cbr 210 ------- 0 0.0 2.0 13 13
- 0.746 0 1 cbr 210 ------- 0 0.0 2.0 13 13
r 0.75568 0 1 cbr 210 ------- 0 0.0 2.0 12 12
+ 0.75568 1 2 cbr 210 ------- 0 0.0 2.0 12 12
- 0.75568 1 2 cbr 210 ------- 0 0.0 2.0 12 12
r 0.77748 1 2 cbr 210 ------- 0 0.0 2.0 12 12
+ 0.788 0 1 cbr 210 ------- 0 0.0 2.0 14 14
- 0.788 0 1 cbr 210 ------- 0 0.0 2.0 14 14
r 0.79768 0 1 cbr 210 ------- 0 0.0 2.0 13 13
+ 0.79768 1 2 cbr 210 ------- 0 0.0 2.0 13 13
- 0.79768 1 2 cbr 210 ------- 0 0.0 2.0 13 13
r 0.81948 1 2 cbr 210 ------- 0 0.0 2.0 13 13
+ 0.83 0 1 cbr 210 ------- 0 0.0 2.0 15 15
- 0.83 0 1 cbr 210 ------- 0 0.0 2.0 15 15
r 0.83968 0 1 cbr 210 ------- 0 0.0 2.0 14 14
+ 0.83968 1 2 cbr 210 ------- 0 0.0 2.0 14 14
- 0.83968 1 2 cbr 210 ------- 0 0.0 2.0 14 14
r 0.86148 1 2 cbr 210 ------- 0 0.0 2.0 14 14
+ 0.872 0 1 cbr 210 ------- 0 0.0 2.0 16 16
- 0.872 0 1 cbr 210 ------- 0 0.0 2.0 16 16
r 0.88168 0 1 cbr 210 ------- 0 0.0 2.0 15 15
+ 0.88168 1 2 cbr 210 ------- 0 0.0 2.0 15 15
- 0.88168 1 2 cbr 210 ------- 0 0.0 2.0 15 15
r 0.90348 1 2 cbr 210 ------- 0 0.0 2.0 15 15
+ 0.914 0 1 cbr 210 ------- 0 0.0 2.0 17 17
- 0.914 0 1 cbr 210 ------- 0 0.0 2.0 17 17
r 0.92368 0 1 cbr 210 ------- 0 0.0 2.0 16 16
+ 0.92368 1 2 cbr 210 ------- 0 0.0 2.0 16 16
- 0.92368 1 2 cbr 210 ------- 0 0.0 2.0 16 16
r 0.94548 1 2 cbr 210 ------- 0 0.0 2.0 16 16
+ 0.956 0 1 cbr 210 ------- 0 0.0 2.0 18 18
- 0.956 0 1 cbr 210 ------- 0 0.0 2.0 18 18
r 0.96568 0 1 cbr 210 ------- 0 0.0 2.0 17 17
+ 0.96568 1 2 cbr 210 ------- 0 0.0 2.0 17 17
- 0.96568 1 2 cbr 210 ------- 0 0.0 2.0 17 17
r 0.98748 1 2 cbr 210 ------- 0 0.0 2.0 17 17
+ 0.998 0 1 cbr 210 ------- 0 0.0 2.0 19 19
- 0.998 0 1 cbr 210 ------- 0 0.0 2.0 19 19
r 1.00768 0 1 cbr 210 ------- 0 0.0 2.0 18 18
+ 1.00768 1 2 cbr 210 ------- 0 0.0 2.0 18 18
- 1.00768 1 2 cbr 210 ------- 0 0.0 2.0 18 18
r 1.02948 1 2 cbr 210 ------- 0 0.0 2.0 18 18
+ 1.04 0 1 cbr 210 ------- 0 0.0 2.0 20 20
- 1.04 0 1 cbr 210 ------- 0 0.0 2.0 20 20
r 1.04968 0 1 cbr 210 ------- 0 0.0 2.0 19 19
+ 1.04968 1 2 cbr 210 ------- 0 0.0 2.0 19 19
- 1.04968 1 2 cbr 210 ------- 0 0.0 2.0 19 19
r 1.07148 1 2 cbr 210 ------- 0 0.0 2.0 19 19
+ 1.082 0 1 cbr 210 ------- 0 0.0 2.0 21 21
- 1.082 0 1 cbr 210 ------- 0 0.0 2.0 21 21
r 1.09168 0 1 cbr 210 ------- 0 0.0 2.0 20 20
+ 1.09168 1 2 cbr 210 ------- 0 0.0 2.0 20 20
- 1.09168 1 2 cbr 210 ------- 0 0.0 2.0 20 20
r 1.11348 1 2 cbr 210 ------- 0 0.0 2.0 20 20
+ 1.124 0 1 cbr 210 ------- 0 0.0 2.0 22 22
- 1.124 0 1 cbr 210 ------- 0 0.0 2.0 22 22
r 1.13368 0 1 cbr 210 ------- 0 0.0 2.0 21 21
+ 1.13368 1 2 cbr 210 ------- 0 0.0 2.0 21 21
- 1.13368 1 2 cbr 210 ------- 0 0.0 2.0 21 21
r 1.15548 1 2 cbr 210 ------- 0 0.0 2.0 21 21
+ 1.166 0 1 cbr 210 ------- 0 0.0 2.0 23 23
- 1.166 0 1 cbr 210 ------- 0 0.0 2.0 23 23
r 1.17568 0 1 cbr 210 ------- 0 0.0 2.0 22 22
+ 1.17568 1 2 cbr 210 ------- 0 0.0 2.0 22 22
- 1.17568 1 2 cbr 210 ------- 0 0.0 2.0 22 22
r 1.19748 1 2 cbr 210 ------- 0 0.0 2.0 22 22
+ 1.208 0 1 cbr 210 ------- 0 0.0 2.0 24 24
- 1.208 0 1 cbr 210 ------- 0 0.0 2.0 24 24
r 1.21768 0 1 cbr 210 ------- 0 0.0 2.0 23 23
+ 1.21768 1 2 cbr 210 ------- 0 0.0 2.0 23 23
- 1.21768 1 2 cbr 210 ------- 0 0.0 2.0 23 23
r 1.23948 1 2 cbr 210 ------- 0 0.0 2.0 23 23
+ 1.25 0 1 cbr 210 ------- 0 0.0 2.0 25 25
- 1.25 0 1 cbr 210 ------- 0 0.0 2.0 25 25
r 1.25968 0 1 cbr 210 ------- 0 0.0 2.0 24 24
+ 1.25968 1 2 cbr 210 ------- 0 0.0 2.0 24 24
- 1.25968 1 2 cbr 210 ------- 0 0.0 2.0 24 24
r 1.28148 1 2 cbr 210 ------- 0 0.0 2.0 24 24
+ 1.292 0 1 cbr 210 ------- 0 0.0 2.0 26 26
- 1.292 0 1 cbr 210 ------- 0 0.0 2.0 26 26
r 1.30168 0 1 cbr 210 ------- 0 0.0 2.0 25 25
+ 1.30168 1 2 cbr 210 ------- 0 0.0 2.0 25 25
- 1.30168 1 2 cbr 210 ------- 0 0.0 2.0 25 25
r 1.32348 1 2 cbr 210 ------- 0 0.0 2.0 25 25
+ 1.334 0 1 cbr 210 ------- 0 0.0 2.0 27 27
- 1.334 0 1 cbr 210 ------- 0 0.0 2.0 27 27
r 1.34368 0 1 cbr 210 ------- 0 0.0 2.0 26 26
+ 1.34368 1 2 cbr 210 ------- 0 0.0 2.0 26 26
- 1.34368 1 2 cbr 210 ------- 0 0.0 2.0 26 26
r 1.36548 1 2 cbr 210 ------- 0 0.0 2.0 26 26
+ 1.376 0 1 cbr 210 ------- 0 0.0 2.0 28 28
- 1.376 0 1 cbr 210 ------- 0 0.0 2.0 28 28
r 1.38568 0 1 cbr 210 ------- 0 0.0 2.0 27 27
+ 1.38568 1 2 cbr 210 ------- 0 0.0 2.0 27 27
- 1.38568 1 2 cbr 210 ------- 0 0.0 2.0 27 27
r 1.40748 1 2 cbr 210 ------- 0 0.0 2.0 27 27
+ 1.418 0 1 cbr 210 ------- 0 0.0 2.0 29 29
- 1.418 0 1 cbr 210 ------- 0 0.0 2.0 29 29
r 1.42768 0 1 cbr 210 ------- 0 0.0 2.0 28 28
+ 1.42768 1 2 cbr 210 ------- 0 0.0 2.0 28 28
- 1.42768 1 2 cbr 210 ------- 0 0.0 2.0 28 28
r 1.44948 1 2 cbr 210 ------- 0 0.0 2.0 28 28
+ 1.46 0 1 cbr 210 ------- 0 0.0 2.0 30 30
- 1.46 0 1 cbr 210 ------- 0 0.0 2.0 30 30
r 1.46968 0 1 cbr 210 ------- 0 0.0 2.0 29 29
+ 1.46968 1 2 cbr 210 ------- 0 0.0 2.0 29 29
- 1.46968 1 2 cbr 210 ------- 0 0.0 2.0 29 29
r 1.49148 1 2 cbr 210 ------- 0 0.0 2.0 29 29
+ 1.502 0 1 cbr 210 ------- 0 0.0 2.0 31 31
- 1.502 0 1 cbr 210 ------- 0 0.0 2.0 31 31
r 1.51168 0 1 cbr 210 ------- 0 0.0 2.0 30 30
+ 1.51168 1 2 cbr 210 ------- 0 0.0 2.0 30 30
- 1.51168 1 2 cbr 210 ------- 0 0.0 2.0 30 30
r 1.53348 1 2 cbr 210 ------- 0 0.0 2.0 30 30
+ 1.544 0 1 cbr 210 ------- 0 0.0 2.0 32 32
- 1.544 0 1 cbr 210 ------- 0 0.0 2.0 32 32
r 1.55368 0 1 cbr 210 ------- 0 0.0 2.0 31 31
+ 1.55368 1 2 cbr 210 ------- 0 0.0 2.0 31 31
- 1.55368 1 2 cbr 210 ------- 0 0.0 2.0 31 31
r 1.57548 1 2 cbr 210 ------- 0 0.0 2.0 31 31
+ 1.586 0 1 cbr 210 ------- 0 0.0 2.0 33 33
- 1.586 0 1 cbr 210 ------- 0 0.0 2.0 33 33
r 1.59568 0 1 cbr 210 ------- 0 0.0 2.0 32 32
+ 1.59568 1 2 cbr 210 ------- 0 0.0 2.0 32 32
- 1.59568 1 2 cbr 210 ------- 0 0.0 2.0 32 32
r 1.61748 1 2 cbr 210 ------- 0 0.0 2.0 32 32
+ 1.628 0 1 cbr 210 ------- 0 0.0 2.0 34 34
- 1.628 0 1 cbr 210 ------- 0 0.0 2.0 34 34
r 1.63768 0 1 cbr 210 ------- 0 0.0 2.0 33 33
+ 1.63768 1 2 cbr 210 ------- 0 0.0 2.0 33 33
- 1.63768 1 2 cbr 210 ------- 0 0.0 2.0 33 33
r 1.65948 1 2 cbr 210 ------- 0 0.0 2.0 33 33
+ 1.67 0 1 cbr 210 ------- 0 0.0 2.0 35 35
- 1.67 0 1 cbr 210 ------- 0 0.0 2.0 35 35
r 1.67968 0 1 cbr 210 ------- 0 0.0 2.0 34 34
+ 1.67968 1 2 cbr 210 ------- 0 0.0 2.0 34 34
- 1.67968 1 2 cbr 210 ------- 0 0.0 2.0 34 34
r 1.70148 1 2 cbr 210 ------- 0 0.0 2.0 34 34
+ 1.712 0 1 cbr 210 ------- 0 0.0 2.0 36 36
- 1.712 0 1 cbr 210 ------- 0 0.0 2.0 36 36
r 1.72168 0 1 cbr 210 ------- 0 0.0 2.0 35 35
+ 1.72168 1 2 cbr 210 ------- 0 0.0 2.0 35 35
- 1.72168 1 2 cbr 210 ------- 0 0.0 2.0 35 35
r 1.74348 1 2 cbr 210 ------- 0 0.0 2.0 35 35
+ 1.754 0 1 cbr 210 ------- 0 0.0 2.0 37 37
- 1.754 0 1 cbr 210 ------- 0 0.0 2.0 37 37
r 1.76368 0 1 cbr 210 ------- 0 0.0 2.0 36 36
+ 1.76368 1 2 cbr 210 ------- 0 0.0 2.0 36 36
- 1.76368 1 2 cbr 210 ------- 0 0.0 2.0 36 36
r 1.78548 1 2 cbr 210 ------- 0 0.0 2.0 36 36
+ 1.796 0 1 cbr 210 ------- 0 0.0 2.0 38 38
- 1.796 0 1 cbr 210 ------- 0 0.0 2.0 38 38
r 1.80568 0 1 cbr 210 ------- 0 0.0 2.0 37 37
+ 1.80568 1 2 cbr 210 ------- 0 0.0 2.0 37 37
- 1.80568 1 2 cbr 210 ------- 0 0.0 2.0 37 37
r 1.82748 1 2 cbr 210 ------- 0 0.0 2.0 37 37
+ 1.838 0 1 cbr 210 ------- 0 0.0 2.0 39 39
- 1.838 0 1 cbr 210 ------- 0 0.0 2.0 39 39
r 1.84768 0 1 cbr 210 ------- 0 0.0 2.0 38 38
+ 1.84768 1 2 cbr 210 ------- 0 0.0 2.0 38 38
- 1.84768 1 2 cbr 210 ------- 0 0.0 2.0 38 38
r 1.86948 1 2 cbr 210 ------- 0 0.0 2.0 38 38
+ 1.88 0 1 cbr 210 ------- 0 0.0 2.0 40 40
- 1.88 0 1 cbr 210 ------- 0 0.0 2.0 40 40
r 1.88968 0 1 cbr 210 ------- 0 0.0 2.0 39 39
+ 1.88968 1 2 cbr 210 ------- 0 0.0 2.0 39 39
- 1.88968 1 2 cbr 210 ------- 0 0.0 2.0 39 39
r 1.91148 1 2 cbr 210 ------- 0 0.0 2.0 39 39
+ 1.922 0 1 cbr 210 ------- 0 0.0 2.0 41 41
- 1.922 0 1 cbr 210 ------- 0 0.0 2.0 41 41
r 1.93168 0 1 cbr 210 ------- 0 0.0 2.0 40 40
+ 1.93168 1 2 cbr 210 ------- 0 0.0 2.0 40 40
- 1.93168 1 2 cbr 210 ------- 0 0.0 2.0 40 40
r 1.95348 1 2 cbr 210 ------- 0 0.0 2.0 40 40
+ 1.964 0 1 cbr 210 ------- 0 0.0 2.0 42 42
- 1.964 0 1 cbr 210 ------- 0 0.0 2.0 42 42
r 1.97368 0 1 cbr 210 ------- 0 0.0 2.0 41 41
+ 1.97368 1 2 cbr 210 ------- 0 0.0 2.0 41 41
- 1.97368 1 2 cbr 210 ------- 0 0.0 2.0 41 41
r 1.99548 1 2 cbr 210 ------- 0 0.0 2.0 41 41
+ 2.006 0 1 cbr 210 ------- 0 0.0 2.0 43 43
- 2.006 0 1 cbr 210 ------- 0 0.0 2.0 43 43
r 2.01568 0 1 cbr 210 ------- 0 0.0 2.0 42 42
+ 2.01568 1 2 cbr 210 ------- 0 0.0 2.0 42 42
- 2.01568 1 2 cbr 210 ------- 0 0.0 2.0 42 42
r 2.03748 1 2 cbr 210 ------- 0 0.0 2.0 42 42
+ 2.048 0 1 cbr 210 ------- 0 0.0 2.0 44 44
- 2.048 0 1 cbr 210 ------- 0 0.0 2.0 44 44
r 2.05768 0 1 cbr 210 ------- 0 0.0 2.0 43 43
+ 2.05768 1 2 cbr 210 ------- 0 0.0 2.0 43 43
- 2.05768 1 2 cbr 210 ------- 0 0.0 2.0 43 43
r 2.07948 1 2 cbr 210 ------- 0 0.0 2.0 43 43
+ 2.09 0 1 cbr 210 ------- 0 0.0 2.0 45 45
- 2.09 0 1 cbr 210 ------- 0 0.0 2.0 45 45
r 2.09968 0 1 cbr 210 ------- 0 0.0 2.0 44 44
+ 2.09968 1 2 cbr 210 ------- 0 0.0 2.0 44 44
- 2.09968 1 2 cbr 210 ------- 0 0.0 2.0 44 44
r 2.12148 1 2 cbr 210 ------- 0 0.0 2.0 44 44
+ 2.132 0 1 cbr 210 ------- 0 0.0 2.0 46 46
- 2.132 0 1 cbr 210 ------- 0 0.0 2.0 46 46
r 2.14168 0 1 cbr 210 ------- 0 0.0 2.0 45 45
+ 2.14168 1 2 cbr 210 ------- 0 0.0 2.0 45 45
- 2.14168 1 2 cbr 210 ------- 0 0.0 2.0 45 45
r 2.16348 1 2 cbr 210 ------- 0 0.0 2.0 45 45
+ 2.174 0 1 cbr 210 ------- 0 0.0 2.0 47 47
- 2.174 0 1 cbr 210 ------- 0 0.0 2.0 47 47
r 2.18368 0 1 cbr 210 ------- 0 0.0 2.0 46 46
+ 2.18368 1 2 cbr 210 ------- 0 0.0 2.0 46 46
- 2.18368 1 2 cbr 210 ------- 0 0.0 2.0 46 46
r 2.20548 1 2 cbr 210 ------- 0 0.0 2.0 46 46
+ 2.216 0 1 cbr 210 ------- 0 0.0 2.0 48 48
- 2.216 0 1 cbr 210 ------- 0 0.0 2.0 48 48
r 2.22568 0 1 cbr 210 ------- 0 0.0 2.0 47 47
+ 2.22568 1 2 cbr 210 ------- 0 0.0 2.0 47 47
- 2.22568 1 2 cbr 210 ------- 0 0.0 2.0 47 47
r 2.24748 1 2 cbr 210 ------- 0 0.0 2.0 47 47
+ 2.258 0 1 cbr 210 ------- 0 0.0 2.0 49 49
- 2.258 0 1 cbr 210 ------- 0 0.0 2.0 49 49
r 2.26768 0 1 cbr 210 ------- 0 0.0 2.0 48 48
+ 2.26768 1 2 cbr 210 ------- 0 0.0 2.0 48 48
- 2.26768 1 2 cbr 210 ------- 0 0.0 2.0 48 48
r 2.28948 1 2 cbr 210 ------- 0 0.0 2.0 48 48
+ 2.3 0 1 cbr 210 ------- 0 0.0 2.0 50 50
- 2.3 0 1 cbr 210 ------- 0 0.0 2.0 50 50
r 2.30968 0 1 cbr 210 ------- 0 0.0 2.0 49 49
+ 2.30968 1 2 cbr 210 ------- 0 0.0 2.0 49 49
- 2.30968 1 2 cbr 210 ------- 0 0.0 2.0 49 49
r 2.33148 1 2 cbr 210 ------- 0 0.0 2.0 49 49
+ 2.342 0 1 cbr 210 ------- 0 0.0 2.0 51 51
- 2.342 0 1 cbr 210 ------- 0 0.0 2.0 51 51
r 2.35168 0 1 cbr 210 ------- 0 0.0 2.0 50 50
+ 2.35168 1 2 cbr 210 ------- 0 0.0 2.0 50 50
- 2.35168 1 2 cbr 210 ------- 0 0.0 2.0 50 50
r 2.37348 1 2 cbr 210 ------- 0 0.0 2.0 50 50
+ 2.384 0 1 cbr 210 ------- 0 0.0 2.0 52 52
- 2.384 0 1 cbr 210 ------- 0 0.0 2.0 52 52
r 2.39368 0 1 cbr 210 ------- 0 0.0 2.0 51 51
+ 2.39368 1 2 cbr 210 ------- 0 0.0 2.0 51 51
- 2.39368 1 2 cbr 210 ------- 0 0.0 2.0 51 51
r 2.41548 1 2 cbr 210 ------- 0 0.0 2.0 51 51
+ 2.426 0 1 cbr 210 ------- 0 0.0 2.0 53 53
- 2.426 0 1 cbr 210 ------- 0 0.0 2.0 53 53
r 2.43568 0 1 cbr 210 ------- 0 0.0 2.0 52 52
+ 2.43568 1 2 cbr 210 ------- 0 0.0 2.0 52 52
- 2.43568 1 2 cbr 210 ------- 0 0.0 2.0 52 52
r 2.45748 1 2 cbr 210 ------- 0 0.0 2.0 52 52
+ 2.468 0 1 cbr 210 ------- 0 0.0 2.0 54 54
- 2.468 0 1 cbr 210 ------- 0 0.0 2.0 54 54
r 2.47768 0 1 cbr 210 ------- 0 0.0 2.0 53 53
+ 2.47768 1 2 cbr 210 ------- 0 0.0 2.0 53 53
- 2.47768 1 2 cbr 210 ------- 0 0.0 2.0 53 53
r 2.49948 1 2 cbr 210 ------- 0 0.0 2.0 53 53
+ 2.51 0 1 cbr 210 ------- 0 0.0 2.0 55 55
- 2.51 0 1 cbr 210 ------- 0 0.0 2.0 55 55
r 2.51968 0 1 cbr 210 ------- 0 0.0 2.0 54 54
+ 2.51968 1 2 cbr 210 ------- 0 0.0 2.0 54 54
- 2.51968 1 2 cbr 210 ------- 0 0.0 2.0 54 54
r 2.54148 1 2 cbr 210 ------- 0 0.0 2.0 54 54
+ 2.552 0 1 cbr 210 ------- 0 0.0 2.0 56 56
- 2.552 0 1 cbr 210 ------- 0 0.0 2.0 56 56
r 2.56168 0 1 cbr 210 ------- 0 0.0 2.0 55 55
+ 2.56168 1 2 cbr 210 ------- 0 0.0 2.0 55 55
- 2.56168 1 2 cbr 210 ------- 0 0.0 2.0 55 55
r 2.58348 1 2 cbr 210 ------- 0 0.0 2.0 55 55
+ 2.594 0 1 cbr 210 ------- 0 0.0 2.0 57 57
- 2.594 0 1 cbr 210 ------- 0 0.0 2.0 57 57
r 2.60368 0 1 cbr 210 ------- 0 0.0 2.0 56 56
+ 2.60368 1 2 cbr 210 ------- 0 0.0 2.0 56 56
- 2.60368 1 2 cbr 210 ------- 0 0.0 2.0 56 56
r 2.62548 1 2 cbr 210 ------- 0 0.0 2.0 56 56
+ 2.636 0 1 cbr 210 ------- 0 0.0 2.0 58 58
- 2.636 0 1 cbr 210 ------- 0 0.0 2.0 58 58
r 2.64568 0 1 cbr 210 ------- 0 0.0 2.0 57 57
+ 2.64568 1 2 cbr 210 ------- 0 0.0 2.0 57 57
- 2.64568 1 2 cbr 210 ------- 0 0.0 2.0 57 57
r 2.66748 1 2 cbr 210 ------- 0 0.0 2.0 57 57
+ 2.678 0 1 cbr 210 ------- 0 0.0 2.0 59 59
- 2.678 0 1 cbr 210 ------- 0 0.0 2.0 59 59
r 2.68768 0 1 cbr 210 ------- 0 0.0 2.0 58 58
+ 2.68768 1 2 cbr 210 ------- 0 0.0 2.0 58 58
- 2.68768 1 2 cbr 210 ------- 0 0.0 2.0 58 58
r 2.70948 1 2 cbr 210 ------- 0 0.0 2.0 58 58
+ 2.72 0 1 cbr 210 ------- 0 0.0 2.0 60 60
- 2.72 0 1 cbr 210 ------- 0 0.0 2.0 60 60
r 2.72968 0 1 cbr 210 ------- 0 0.0 2.0 59 59
+ 2.72968 1 2 cbr 210 ------- 0 0.0 2.0 59 59
- 2.72968 1 2 cbr 210 ------- 0 0.0 2.0 59 59
r 2.75148 1 2 cbr 210 ------- 0 0.0 2.0 59 59
+ 2.762 0 1 cbr 210 ------- 0 0.0 2.0 61 61
- 2.762 0 1 cbr 210 ------- 0 0.0 2.0 61 61
r 2.77168 0 1 cbr 210 ------- 0 0.0 2.0 60 60
+ 2.77168 1 2 cbr 210 ------- 0 0.0 2.0 60 60
- 2.77168 1 2 cbr 210 ------- 0 0.0 2.0 60 60
r 2.79348 1 2 cbr 210 ------- 0 0.0 2.0 60 60
+ 2.804 0 1 cbr 210 ------- 0 0.0 2.0 62 62
- 2.804 0 1 cbr 210 ------- 0 0.0 2.0 62 62
r 2.81368 0 1 cbr 210 ------- 0 0.0 2.0 61 61
+ 2.81368 1 2 cbr 210 ------- 0 0.0 2.0 61 61
- 2.81368 1 2 cbr 210 ------- 0 0.0 2.0 61 61
r 2.83548 1 2 cbr 210 ------- 0 0.0 2.0 61 61
+ 2.846 0 1 cbr 210 ------- 0 0.0 2.0 63 63
- 2.846 0 1 cbr 210 ------- 0 0.0 2.0 63 63
r 2.85568 0 1 cbr 210 ------- 0 0.0 2.0 62 62
+ 2.85568 1 2 cbr 210 ------- 0 0.0 2.0 62 62
- 2.85568 1 2 cbr 210 ------- 0 0.0 2.0 62 62
r 2.87748 1 2 cbr 210 ------- 0 0.0 2.0 62 62
+ 2.888 0 1 cbr 210 ------- 0 0.0 2.0 64 64
- 2.888 0 1 cbr 210 ------- 0 0.0 2.0 64 64
r 2.89768 0 1 cbr 210 ------- 0 0.0 2.0 63 63
+ 2.89768 1 2 cbr 210 ------- 0 0.0 2.0 63 63
- 2.89768 1 2 cbr 210 ------- 0 0.0 2.0 63 63
r 2.91948 1 2 cbr 210 ------- 0 0.0 2.0 63 63
+ 2.93 0 1 cbr 210 ------- 0 0.0 2.0 65 65
- 2.93 0 1 cbr 210 ------- 0 0.0 2.0 65 65
r 2.93968 0 1 cbr 210 ------- 0 0.0 2.0 64 64
+ 2.93968 1 2 cbr 210 ------- 0 0.0 2.0 64 64
- 2.93968 1 2 cbr 210 ------- 0 0.0 2.0 64 64
r 2.96148 1 2 cbr 210 ------- 0 0.0 2.0 64 64
+ 2.972 0 1 cbr 210 ------- 0 0.0 2.0 66 66
- 2.972 0 1 cbr 210 ------- 0 0.0 2.0 66 66
r 2.98168 0 1 cbr 210 ------- 0 0.0 2.0 65 65
+ 2.98168 1 2 cbr 210 ------- 0 0.0 2.0 65 65
- 2.98168 1 2 cbr 210 ------- 0 0.0 2.0 65 65
r 3.00348 1 2 cbr 210 ------- 0 0.0 2.0 65 65
+ 3.014 0 1 cbr 210 ------- 0 0.0 2.0 67 67
- 3.014 0 1 cbr 210 ------- 0 0.0 2.0 67 67
r 3.02368 0 1 cbr 210 ------- 0 0.0 2.0 66 66
+ 3.02368 1 2 cbr 210 ------- 0 0.0 2.0 66 66
- 3.02368 1 2 cbr 210 ------- 0 0.0 2.0 66 66
r 3.04548 1 2 cbr 210 ------- 0 0.0 2.0 66 66
+ 3.056 0 1 cbr 210 ------- 0 0.0 2.0 68 68
- 3.056 0 1 cbr 210 ------- 0 0.0 2.0 68 68
r 3.06568 0 1 cbr 210 ------- 0 0.0 2.0 67 67
+ 3.06568 1 2 cbr 210 ------- 0 0.0 2.0 67 67
- 3.06568 1 2 cbr 210 ------- 0 0.0 2.0 67 67
r 3.08748 1 2 cbr 210 ------- 0 0.0 2.0 67 67
+ 3.098 0 1 cbr 210 ------- 0 0.0 2.0 69 69
- 3.098 0 1 cbr 210 ------- 0 0.0 2.0 69 69
r 3.10768 0 1 cbr 210 ------- 0 0.0 2.0 68 68
+ 3.10768 1 2 cbr 210 ------- 0 0.0 2.0 68 68
- 3.10768 1 2 cbr 210 ------- 0 0.0 2.0 68 68
r 3.12948 1 2 cbr 210 ------- 0 0.0 2.0 68 68
+ 3.14 0 1 cbr 210 ------- 0 0.0 2.0 70 70
- 3.14 0 1 cbr 210 ------- 0 0.0 2.0 70 70
r 3.14968 0 1 cbr 210 ------- 0 0.0 2.0 69 69
+ 3.14968 1 2 cbr 210 ------- 0 0.0 2.0 69 69
- 3.14968 1 2 cbr 210 ------- 0 0.0 2.0 69 69
r 3.17148 1 2 cbr 210 ------- 0 0.0 2.0 69 69
+ 3.182 0 1 cbr 210 ------- 0 0.0 2.0 71 71
- 3.182 0 1 cbr 210 ------- 0 0.0 2.0 71 71
r 3.19168 0 1 cbr 210 ------- 0 0.0 2.0 70 70
+ 3.19168 1 2 cbr 210 ------- 0 0.0 2.0 70 70
- 3.19168 1 2 cbr 210 ------- 0 0.0 2.0 70 70
r 3.21348 1 2 cbr 210 ------- 0 0.0 2.0 70 70
+ 3.224 0 1 cbr 210 ------- 0 0.0 2.0 72 72
- 3.224 0 1 cbr 210 ------- 0 0.0 2.0 72 72
r 3.23368 0 1 cbr 210 ------- 0 0.0 2.0 71 71
+ 3.23368 1 2 cbr 210 ------- 0 0.0 2.0 71 71
- 3.23368 1 2 cbr 210 ------- 0 0.0 2.0 71 71
r 3.25548 1 2 cbr 210 ------- 0 0.0 2.0 71 71
+ 3.266 0 1 cbr 210 ------- 0 0.0 2.0 73 73
- 3.266 0 1 cbr 210 ------- 0 0.0 2.0 73 73
r 3.27568 0 1 cbr 210 ------- 0 0.0 2.0 72 72
+ 3.27568 1 2 cbr 210 ------- 0 0.0 2.0 72 72
- 3.27568 1 2 cbr 210 ------- 0 0.0 2.0 72 72
r 3.29748 1 2 cbr 210 ------- 0 0.0 2.0 72 72
+ 3.308 0 1 cbr 210 ------- 0 0.0 2.0 74 74
- 3.308 0 1 cbr 210 ------- 0 0.0 2.0 74 74
r 3.31768 0 1 cbr 210 ------- 0 0.0 2.0 73 73
+ 3.31768 1 2 cbr 210 ------- 0 0.0 2.0 73 73
- 3.31768 1 2 cbr 210 ------- 0 0.0 2.0 73 73
r 3.33948 1 2 cbr 210 ------- 0 0.0 2.0 73 73
+ 3.35 0 1 cbr 210 ------- 0 0.0 2.0 75 75
- 3.35 0 1 cbr 210 ------- 0 0.0 2.0 75 75
r 3.35968 0 1 cbr 210 ------- 0 0.0 2.0 74 74
+ 3.35968 1 2 cbr 210 ------- 0 0.0 2.0 74 74
- 3.35968 1 2 cbr 210 ------- 0 0.0 2.0 74 74
r 3.38148 1 2 cbr 210 ------- 0 0.0 2.0 74 74
+ 3.392 0 1 cbr 210 ------- 0 0.0 2.0 76 76
- 3.392 0 1 cbr 210 ------- 0 0.0 2.0 76 76
r 3.40168 0 1 cbr 210 ------- 0 0.0 2.0 75 75
+ 3.40168 1 2 cbr 210 ------- 0 0.0 2.0 75 75
- 3.40168 1 2 cbr 210 ------- 0 0.0 2.0 75 75
r 3.42348 1 2 cbr 210 ------- 0 0.0 2.0 75 75
+ 3.434 0 1 cbr 210 ------- 0 0.0 2.0 77 77
- 3.434 0 1 cbr 210 ------- 0 0.0 2.0 77 77
r 3.44368 0 1 cbr 210 ------- 0 0.0 2.0 76 76
+ 3.44368 1 2 cbr 210 ------- 0 0.0 2.0 76 76
- 3.44368 1 2 cbr 210 ------- 0 0.0 2.0 76 76
r 3.46548 1 2 cbr 210 ------- 0 0.0 2.0 76 76
+ 3.476 0 1 cbr 210 ------- 0 0.0 2.0 78 78
- 3.476 0 1 cbr 210 ------- 0 0.0 2.0 78 78
r 3.48568 0 1 cbr 210 ------- 0 0.0 2.0 77 77
+ 3.48568 1 2 cbr 210 ------- 0 0.0 2.0 77 77
- 3.48568 1 2 cbr 210 ------- 0 0.0 2.0 77 77
r 3.50748 1 2 cbr 210 ------- 0 0.0 2.0 77 77
+ 3.518 0 1 cbr 210 ------- 0 0.0 2.0 79 79
- 3.518 0 1 cbr 210 ------- 0 0.0 2.0 79 79
r 3.52768 0 1 cbr 210 ------- 0 0.0 2.0 78 78
+ 3.52768 1 2 cbr 210 ------- 0 0.0 2.0 78 78
- 3.52768 1 2 cbr 210 ------- 0 0.0 2.0 78 78
r 3.54948 1 2 cbr 210 ------- 0 0.0 2.0 78 78
+ 3.56 0 1 cbr 210 ------- 0 0.0 2.0 80 80
- 3.56 0 1 cbr 210 ------- 0 0.0 2.0 80 80
r 3.56968 0 1 cbr 210 ------- 0 0.0 2.0 79 79
+ 3.56968 1 2 cbr 210 ------- 0 0.0 2.0 79 79
- 3.56968 1 2 cbr 210 ------- 0 0.0 2.0 79 79
r 3.59148 1 2 cbr 210 ------- 0 0.0 2.0 79 79
+ 3.602 0 1 cbr 210 ------- 0 0.0 2.0 81 81
- 3.602 0 1 cbr 210 ------- 0 0.0 2.0 81 81
r 3.61168 0 1 cbr 210 ------- 0 0.0 2.0 80 80
+ 3.61168 1 2 cbr 210 ------- 0 0.0 2.0 80 80
- 3.61168 1 2 cbr 210 ------- 0 0.0 2.0 80 80
r 3.63348 1 2 cbr 210 ------- 0 0.0 2.0 80 80
+ 3.644 0 1 cbr 210 ------- 0 0.0 2.0 82 82
- 3.644 0 1 cbr 210 ------- 0 0.0 2.0 82 82
r 3.65368 0 1 cbr 210 ------- 0 0.0 2.0 81 81
+ 3.65368 1 2 cbr 210 ------- 0 0.0 2.0 81 81
- 3.65368 1 2 cbr 210 ------- 0 0.0 2.0 81 81
r 3.67548 1 2 cbr 210 ------- 0 0.0 2.0 81 81
+ 3.686 0 1 cbr 210 ------- 0 0.0 2.0 83 83
- 3.686 0 1 cbr 210 ------- 0 0.0 2.0 83 83
r 3.69568 0 1 cbr 210 ------- 0 0.0 2.0 82 82
+ 3.69568 1 2 cbr 210 ------- 0 0.0 2.0 82 82
- 3.69568 1 2 cbr 210 ------- 0 0.0 2.0 82 82
r 3.71748 1 2 cbr 210 ------- 0 0.0 2.0 82 82
+ 3.728 0 1 cbr 210 ------- 0 0.0 2.0 84 84
- 3.728 0 1 cbr 210 ------- 0 0.0 2.0 84 84
r 3.73768 0 1 cbr 210 ------- 0 0.0 2.0 83 83
+ 3.73768 1 2 cbr 210 ------- 0 0.0 2.0 83 83
- 3.73768 1 2 cbr 210 ------- 0 0.0 2.0 83 83
r 3.75948 1 2 cbr 210 ------- 0 0.0 2.0 83 83
+ 3.77 0 1 cbr 210 ------- 0 0.0 2.0 85 85
- 3.77 0 1 cbr 210 ------- 0 0.0 2.0 85 85
r 3.77968 0 1 cbr 210 ------- 0 0.0 2.0 84 84
+ 3.77968 1 2 cbr 210 ------- 0 0.0 2.0 84 84
- 3.77968 1 2 cbr 210 ------- 0 0.0 2.0 84 84
r 3.80148 1 2 cbr 210 ------- 0 0.0 2.0 84 84
+ 3.812 0 1 cbr 210 ------- 0 0.0 2.0 86 86
- 3.812 0 1 cbr 210 ------- 0 0.0 2.0 86 86
r 3.82168 0 1 cbr 210 ------- 0 0.0 2.0 85 85
+ 3.82168 1 2 cbr 210 ------- 0 0.0 2.0 85 85
- 3.82168 1 2 cbr 210 ------- 0 0.0 2.0 85 85
r 3.84348 1 2 cbr 210 ------- 0 0.0 2.0 85 85
+ 3.854 0 1 cbr 210 ------- 0 0.0 2.0 87 87
- 3.854 0 1 cbr 210 ------- 0 0.0 2.0 87 87
r 3.86368 0 1 cbr 210 ------- 0 0.0 2.0 86 86
+ 3.86368 1 2 cbr 210 ------- 0 0.0 2.0 86 86
- 3.86368 1 2 cbr 210 ------- 0 0.0 2.0 86 86
r 3.88548 1 2 cbr 210 ------- 0 0.0 2.0 86 86
+ 3.896 0 1 cbr 210 ------- 0 0.0 2.0 88 88
- 3.896 0 1 cbr 210 ------- 0 0.0 2.0 88 88
r 3.90568 0 1 cbr 210 ------- 0 0.0 2.0 87 87
+ 3.90568 1 2 cbr 210 ------- 0 0.0 2.0 87 87
- 3.90568 1 2 cbr 210 ------- 0 0.0 2.0 87 87
r 3.92748 1 2 cbr 210 ------- 0 0.0 2.0 87 87
+ 3.938 0 1 cbr 210 ------- 0 0.0 2.0 89 89
- 3.938 0 1 cbr 210 ------- 0 0.0 2.0 89 89
r 3.94768 0 1 cbr 210 ------- 0 0.0 2.0 88 88
+ 3.94768 1 2 cbr 210 ------- 0 0.0 2.0 88 88
- 3.94768 1 2 cbr 210 ------- 0 0.0 2.0 88 88
r 3.96948 1 2 cbr 210 ------- 0 0.0 2.0 88 88
+ 3.98 0 1 cbr 210 ------- 0 0.0 2.0 90 90
- 3.98 0 1 cbr 210 ------- 0 0.0 2.0 90 90
r 3.98968 0 1 cbr 210 ------- 0 0.0 2.0 89 89
+ 3.98968 1 2 cbr 210 ------- 0 0.0 2.0 89 89
- 3.98968 1 2 cbr 210 ------- 0 0.0 2.0 89 89
r 4.01148 1 2 cbr 210 ------- 0 0.0 2.0 89 89
+ 4.022 0 1 cbr 210 ------- 0 0.0 2.0 91 91
- 4.022 0 1 cbr 210 ------- 0 0.0 2.0 91 91
r 4.03168 0 1 cbr 210 ------- 0 0.0 2.0 90 90
+ 4.03168 1 2 cbr 210 ------- 0 0.0 2.0 90 90
- 4.03168 1 2 cbr 210 ------- 0 0.0 2.0 90 90
r 4.05348 1 2 cbr 210 ------- 0 0.0 2.0 90 90
+ 4.064 0 1 cbr 210 ------- 0 0.0 2.0 92 92
- 4.064 0 1 cbr 210 ------- 0 0.0 2.0 92 92
r 4.07368 0 1 cbr 210 ------- 0 0.0 2.0 91 91
+ 4.07368 1 2 cbr 210 ------- 0 0.0 2.0 91 91
- 4.07368 1 2 cbr 210 ------- 0 0.0 2.0 91 91
r 4.09548 1 2 cbr 210 ------- 0 0.0 2.0 91 91
+ 4.106 0 1 cbr 210 ------- 0 0.0 2.0 93 93
- 4.106 0 1 cbr 210 ------- 0 0.0 2.0 93 93
r 4.11568 0 1 cbr 210 ------- 0 0.0 2.0 92 92
+ 4.11568 1 2 cbr 210 ------- 0 0.0 2.0 92 92
- 4.11568 1 2 cbr 210 ------- 0 0.0 2.0 92 92
r 4.13748 1 2 cbr 210 ------- 0 0.0 2.0 92 92
+ 4.148 0 1 cbr 210 ------- 0 0.0 2.0 94 94
- 4.148 0 1 cbr 210 ------- 0 0.0 2.0 94 94
r 4.15768 0 1 cbr 210 ------- 0 0.0 2.0 93 93
+ 4.15768 1 2 cbr 210 ------- 0 0.0 2.0 93 93
- 4.15768 1 2 cbr 210 ------- 0 0.0 2.0 93 93
r 4.17948 1 2 cbr 210 ------- 0 0.0 2.0 93 93
+ 4.19 0 1 cbr 210 ------- 0 0.0 2.0 95 95
- 4.19 0 1 cbr 210 ------- 0 0.0 2.0 95 95
r 4.19968 0 1 cbr 210 ------- 0 0.0 2.0 94 94
+ 4.19968 1 2 cbr 210 ------- 0 0.0 2.0 94 94
- 4.19968 1 2 cbr 210 ------- 0 0.0 2.0 94 94
r 4.22148 1 2 cbr 210 ------- 0 0.0 2.0 94 94
+ 4.232 0 1 cbr 210 ------- 0 0.0 2.0 96 96
- 4.232 0 1 cbr 210 ------- 0 0.0 2.0 96 96
r 4.24168 0 1 cbr 210 ------- 0 0.0 2.0 95 95
+ 4.24168 1 2 cbr 210 ------- 0 0.0 2.0 95 95
- 4.24168 1 2 cbr 210 ------- 0 0.0 2.0 95 95
r 4.26348 1 2 cbr 210 ------- 0 0.0 2.0 95 95
+ 4.274 0 1 cbr 210 ------- 0 0.0 2.0 97 97
- 4.274 0 1 cbr 210 ------- 0 0.0 2.0 97 97
r 4.28368 0 1 cbr 210 ------- 0 0.0 2.0 96 96
+ 4.28368 1 2 cbr 210 ------- 0 0.0 2.0 96 96
- 4.28368 1 2 cbr 210 ------- 0 0.0 2.0 96 96
r 4.30548 1 2 cbr 210 ------- 0 0.0 2.0 96 96
+ 4.316 0 1 cbr 210 ------- 0 0.0 2.0 98 98
- 4.316 0 1 cbr 210 ------- 0 0.0 2.0 98 98
r 4.32568 0 1 cbr 210 ------- 0 0.0 2.0 97 97
+ 4.32568 1 2 cbr 210 ------- 0 0.0 2.0 97 97
- 4.32568 1 2 cbr 210 ------- 0 0.0 2.0 97 97
r 4.34748 1 2 cbr 210 ------- 0 0.0 2.0 97 97
+ 4.358 0 1 cbr 210 ------- 0 0.0 2.0 99 99
- 4.358 0 1 cbr 210 ------- 0 0.0 2.0 99 99
r 4.36768 0 1 cbr 210 ------- 0 0.0 2.0 98 98
+ 4.36768 1 2 cbr 210 ------- 0 0.0 2.0 98 98
- 4.36768 1 2 cbr 210 ------- 0 0.0 2.0 98 98
r 4.38948 1 2 cbr 210 ------- 0 0.0 2.0 98 98
+ 4.4 0 1 cbr 210 ------- 0 0.0 2.0 100 100
- 4.4 0 1 cbr 210 ------- 0 0.0 2.0 100 100
r 4.40968 0 1 cbr 210 ------- 0 0.0 2.0 99 99
+ 4.40968 1 2 cbr 210 ------- 0 0.0 2.0 99 99
- 4.40968 1 2 cbr 210 ------- 0 0.0 2.0 99 99
r 4.43148 1 2 cbr 210 ------- 0 0.0 2.0 99 99
+ 4.442 0 1 cbr 210 ------- 0 0.0 2.0 101 101
- 4.442 0 1 cbr 210 ------- 0 0.0 2.0 101 101
r 4.45168 0 1 cbr 210 ------- 0 0.0 2.0 100 100
+ 4.45168 1 2 cbr 210 ------- 0 0.0 2.0 100 100
- 4.45168 1 2 cbr 210 ------- 0 0.0 2.0 100 100
r 4.47348 1 2 cbr 210 ------- 0 0.0 2.0 100 100
+ 4.484 0 1 cbr 210 ------- 0 0.0 2.0 102 102
- 4.484 0 1 cbr 210 ------- 0 0.0 2.0 102 102
r 4.49368 0 1 cbr 210 ------- 0 0.0 2.0 101 101
+ 4.49368 1 2 cbr 210 ------- 0 0.0 2.0 101 101
- 4.49368 1 2 cbr 210 ------- 0 0.0 2.0 101 101
r 4.51548 1 2 cbr 210 ------- 0 0.0 2.0 101 101
+ 4.526 0 1 cbr 210 ------- 0 0.0 2.0 103 103
- 4.526 0 1 cbr 210 ------- 0 0.0 2.0 103 103
r 4.53568 0 1 cbr 210 ------- 0 0.0 2.0 102 102
+ 4.53568 1 2 cbr 210 ------- 0 0.0 2.0 102 102
- 4.53568 1 2 cbr 210 ------- 0 0.0 2.0 102 102
r 4.55748 1 2 cbr 210 ------- 0 0.0 2.0 102 102
+ 4.568 0 1 cbr 210 ------- 0 0.0 2.0 104 104
- 4.568 0 1 cbr 210 ------- 0 0.0 2.0 104 104
r 4.57768 0 1 cbr 210 ------- 0 0.0 2.0 103 103
+ 4.57768 1 2 cbr 210 ------- 0 0.0 2.0 103 103
- 4.57768 1 2 cbr 210 ------- 0 0.0 2.0 103 103
r 4.59948 1 2 cbr 210 ------- 0 0.0 2.0 103 103
+ 4.61 0 1 cbr 210 ------- 0 0.0 2.0 105 105
- 4.61 0 1 cbr 210 ------- 0 0.0 2.0 105 105
r 4.61968 0 1 cbr 210 ------- 0 0.0 2.0 104 104
+ 4.61968 1 2 cbr 210 ------- 0 0.0 2.0 104 104
- 4.61968 1 2 cbr 210 ------- 0 0.0 2.0 104 104
r 4.64148 1 2 cbr 210 ------- 0 0.0 2.0 104 104
+ 4.652 0 1 cbr 210 ------- 0 0.0 2.0 106 106
- 4.652 0 1 cbr 210 ------- 0 0.0 2.0 106 106
r 4.66168 0 1 cbr 210 ------- 0 0.0 2.0 105 105
+ 4.66168 1 2 cbr 210 ------- 0 0.0 2.0 105 105
- 4.66168 1 2 cbr 210 ------- 0 0.0 2.0 105 105
r 4.68348 1 2 cbr 210 ------- 0 0.0 2.0 105 105
+ 4.694 0 1 cbr 210 ------- 0 0.0 2.0 107 107
- 4.694 0 1 cbr 210 ------- 0 0.0 2.0 107 107
r 4.70368 0 1 cbr 210 ------- 0 0.0 2.0 106 106
+ 4.70368 1 2 cbr 210 ------- 0 0.0 2.0 106 106
- 4.70368 1 2 cbr 210 ------- 0 0.0 2.0 106 106
r 4.72548 1 2 cbr 210 ------- 0 0.0 2.0 106 106
+ 4.736 0 1 cbr 210 ------- 0 0.0 2.0 108 108
- 4.736 0 1 cbr 210 ------- 0 0.0 2.0 108 108
r 4.74568 0 1 cbr 210 ------- 0 0.0 2.0 107 107
+ 4.74568 1 2 cbr 210 ------- 0 0.0 2.0 107 107
- 4.74568 1 2 cbr 210 ------- 0 0.0 2.0 107 107
r 4.76748 1 2 cbr 210 ------- 0 0.0 2.0 107 107
+ 4.778 0 1 cbr 210 ------- 0 0.0 2.0 109 109
- 4.778 0 1 cbr 210 ------- 0 0.0 2.0 109 109
r 4.78768 0 1 cbr 210 ------- 0 0.0 2.0 108 108
+ 4.78768 1 2 cbr 210 ------- 0 0.0 2.0 108 108
- 4.78768 1 2 cbr 210 ------- 0 0.0 2.0 108 108
r 4.80948 1 2 cbr 210 ------- 0 0.0 2.0 108 108
+ 4.82 0 1 cbr 210 ------- 0 0.0 2.0 110 110
- 4.82 0 1 cbr 210 ------- 0 0.0 2.0 110 110
r 4.82968 0 1 cbr 210 ------- 0 0.0 2.0 109 109
+ 4.82968 1 2 cbr 210 ------- 0 0.0 2.0 109 109
- 4.82968 1 2 cbr 210 ------- 0 0.0 2.0 109 109
r 4.85148 1 2 cbr 210 ------- 0 0.0 2.0 109 109