+ 0.1 0 1 cbr 1000 ------- 2 0.0 1.0 0 0
- 0.1 0 1 cbr 1000 ------- 2 0.0 1.0 0 0
r 0.108 0 1 cbr 1000 ------- 2 0.0 1.0 0 0
+ 0.108 0 1 cbr 1000 ------- 2 0.0 1.0 1 1
- 0.108 0 1 cbr 1000 ------- 2 0.0 1.0 1 1
r 0.116 0 1 cbr 1000 ------- 2 0.0 1.0 1 1
+ 0.116 0 1 cbr 1000 ------- 2 0.0 1.0 2 2
- 0.116 0 1 cbr 1000 ------- 2 0.0 1.0 2 2
r 0.124 0 1 cbr 1000 ------- 2 0.0 1.0 2 2
+ 0.124 0 1 cbr 1000 ------- 2 0.0 1.0 3 3
- 0.124 0 1 cbr 1000 ------- 2 0.0 1.0 3 3
r 0.132 0 1 cbr 1000 ------- 2 0.0 1.0 3 3
+ 0.132 0 1 cbr 1000 ------- 2 0.0 1.0 4 4
- 0.132 0 1 cbr 1000 ------- 2 0.0 1.0 4 4
r 0.14 0 1 cbr 1000 ------- 2 0.0 1.0 4 4
+ 0.14 0 1 cbr 1000 ------- 2 0.0 1.0 5 5
- 0.14 0 1 cbr 1000 ------- 2 0.0 1.0 5 5
r 0.148 0 1 cbr 1000 ------- 2 0.0 1.0 5 5
+ 0.148 0 1 cbr 1000 ------- 2 0.0 1.0 6 6
- 0.148 0 1 cbr 1000 ------- 2 0.0 1.0 6 6
r 0.156 0 1 cbr 1000 ------- 2 0.0 1.0 6 6
+ 0.156 0 1 cbr 1000 ------- 2 0.0 1.0 7 7
- 0.156 0 1 cbr 1000 ------- 2 0.0 1.0 7 7
r 0.164 0 1 cbr 1000 ------- 2 0.0 1.0 7 7
+ 0.164 0 1 cbr 1000 ------- 2 0.0 1.0 8 8
- 0.164 0 1 cbr 1000 ------- 2 0.0 1.0 8 8
r 0.172 0 1 cbr 1000 ------- 2 0.0 1.0 8 8
+ 0.172 0 1 cbr 1000 ------- 2 0.0 1.0 9 9
- 0.172 0 1 cbr 1000 ------- 2 0.0 1.0 9 9
r 0.18 0 1 cbr 1000 ------- 2 0.0 1.0 9 9
+ 0.18 0 1 cbr 1000 ------- 2 0.0 1.0 10 10
- 0.18 0 1 cbr 1000 ------- 2 0.0 1.0 10 10
r 0.188 0 1 cbr 1000 ------- 2 0.0 1.0 10 10
+ 0.188 0 1 cbr 1000 ------- 2 0.0 1.0 11 11
- 0.188 0 1 cbr 1000 ------- 2 0.0 1.0 11 11
r 0.196 0 1 cbr 1000 ------- 2 0.0 1.0 11 11
+ 0.196 0 1 cbr 1000 ------- 2 0.0 1.0 12 12
- 0.196 0 1 cbr 1000 ------- 2 0.0 1.0 12 12
r 0.204 0 1 cbr 1000 ------- 2 0.0 1.0 12 12
+ 0.204 0 1 cbr 1000 ------- 2 0.0 1.0 13 13
- 0.204 0 1 cbr 1000 ------- 2 0.0 1.0 13 13
r 0.212 0 1 cbr 1000 ------- 2 0.0 1.0 13 13
+ 0.212 0 1 cbr 1000 ------- 2 0.0 1.0 14 14
- 0.212 0 1 cbr 1000 ------- 2 0.0 1.0 14 14
r 0.22 0 1 cbr 1000 ------- 2 0.0 1.0 14 14
+ 0.22 0 1 cbr 1000 ------- 2 0.0 1.0 15 15
- 0.22 0 1 cbr 1000 ------- 2 0.0 1.0 15 15
r 0.228 0 1 cbr 1000 ------- 2 0.0 1.0 15 15
+ 0.228 0 1 cbr 1000 ------- 2 0.0 1.0 16 16
- 0.228 0 1 cbr 1000 ------- 2 0.0 1.0 16 16
r 0.236 0 1 cbr 1000 ------- 2 0.0 1.0 16 16
+ 0.236 0 1 cbr 1000 ------- 2 0.0 1.0 17 17
- 0.236 0 1 cbr 1000 ------- 2 0.0 1.0 17 17
r 0.244 0 1 cbr 1000 ------- 2 0.0 1.0 17 17
+ 0.244 0 1 cbr 1000 ------- 2 0.0 1.0 18 18
- 0.244 0 1 cbr 1000 ------- 2 0.0 1.0 18 18
r 0.252 0 1 cbr 1000 ------- 2 0.0 1.0 18 18
+ 0.252 0 1 cbr 1000 ------- 2 0.0 1.0 19 19
- 0.252 0 1 cbr 1000 ------- 2 0.0 1.0 19 19
r 0.26 0 1 cbr 1000 ------- 2 0.0 1.0 19 19
+ 0.26 0 1 cbr 1000 ------- 2 0.0 1.0 20 20
- 0.26 0 1 cbr 1000 ------- 2 0.0 1.0 20 20
r 0.268 0 1 cbr 1000 ------- 2 0.0 1.0 20 20
+ 0.268 0 1 cbr 1000 ------- 2 0.0 1.0 21 21
- 0.268 0 1 cbr 1000 ------- 2 0.0 1.0 21 21
r 0.276 0 1 cbr 1000 ------- 2 0.0 1.0 21 21
+ 0.276 0 1 cbr 1000 ------- 2 0.0 1.0 22 22
- 0.276 0 1 cbr 1000 ------- 2 0.0 1.0 22 22
r 0.284 0 1 cbr 1000 ------- 2 0.0 1.0 22 22
+ 0.284 0 1 cbr 1000 ------- 2 0.0 1.0 23 23
- 0.284 0 1 cbr 1000 ------- 2 0.0 1.0 23 23
r 0.292 0 1 cbr 1000 ------- 2 0.0 1.0 23 23
+ 0.292 0 1 cbr 1000 ------- 2 0.0 1.0 24 24
- 0.292 0 1 cbr 1000 ------- 2 0.0 1.0 24 24
r 0.3 0 1 cbr 1000 ------- 2 0.0 1.0 24 24
+ 0.3 0 1 cbr 1000 ------- 2 0.0 1.0 25 25
- 0.3 0 1 cbr 1000 ------- 2 0.0 1.0 25 25
r 0.308 0 1 cbr 1000 ------- 2 0.0 1.0 25 25
+ 0.308 0 1 cbr 1000 ------- 2 0.0 1.0 26 26
- 0.308 0 1 cbr 1000 ------- 2 0.0 1.0 26 26
r 0.316 0 1 cbr 1000 ------- 2 0.0 1.0 26 26
+ 0.316 0 1 cbr 1000 ------- 2 0.0 1.0 27 27
- 0.316 0 1 cbr 1000 ------- 2 0.0 1.0 27 27
r 0.324 0 1 cbr 1000 ------- 2 0.0 1.0 27 27
+ 0.324 0 1 cbr 1000 ------- 2 0.0 1.0 28 28
- 0.324 0 1 cbr 1000 ------- 2 0.0 1.0 28 28
r 0.332 0 1 cbr 1000 ------- 2 0.0 1.0 28 28
+ 0.332 0 1 cbr 1000 ------- 2 0.0 1.0 29 29
- 0.332 0 1 cbr 1000 ------- 2 0.0 1.0 29 29
r 0.34 0 1 cbr 1000 ------- 2 0.0 1.0 29 29
+ 0.34 0 1 cbr 1000 ------- 2 0.0 1.0 30 30
- 0.34 0 1 cbr 1000 ------- 2 0.0 1.0 30 30
r 0.348 0 1 cbr 1000 ------- 2 0.0 1.0 30 30
+ 0.348 0 1 cbr 1000 ------- 2 0.0 1.0 31 31
- 0.348 0 1 cbr 1000 ------- 2 0.0 1.0 31 31
r 0.356 0 1 cbr 1000 ------- 2 0.0 1.0 31 31
+ 0.356 0 1 cbr 1000 ------- 2 0.0 1.0 32 32
- 0.356 0 1 cbr 1000 ------- 2 0.0 1.0 32 32
r 0.364 0 1 cbr 1000 ------- 2 0.0 1.0 32 32
+ 0.364 0 1 cbr 1000 ------- 2 0.0 1.0 33 33
- 0.364 0 1 cbr 1000 ------- 2 0.0 1.0 33 33
r 0.372 0 1 cbr 1000 ------- 2 0.0 1.0 33 33
+ 0.372 0 1 cbr 1000 ------- 2 0.0 1.0 34 34
- 0.372 0 1 cbr 1000 ------- 2 0.0 1.0 34 34
r 0.38 0 1 cbr 1000 ------- 2 0.0 1.0 34 34
+ 0.38 0 1 cbr 1000 ------- 2 0.0 1.0 35 35
- 0.38 0 1 cbr 1000 ------- 2 0.0 1.0 35 35
r 0.388 0 1 cbr 1000 ------- 2 0.0 1.0 35 35
+ 0.388 0 1 cbr 1000 ------- 2 0.0 1.0 36 36
- 0.388 0 1 cbr 1000 ------- 2 0.0 1.0 36 36
r 0.396 0 1 cbr 1000 ------- 2 0.0 1.0 36 36
+ 0.396 0 1 cbr 1000 ------- 2 0.0 1.0 37 37
- 0.396 0 1 cbr 1000 ------- 2 0.0 1.0 37 37
r 0.404 0 1 cbr 1000 ------- 2 0.0 1.0 37 37
+ 0.404 0 1 cbr 1000 ------- 2 0.0 1.0 38 38
- 0.404 0 1 cbr 1000 ------- 2 0.0 1.0 38 38
r 0.412 0 1 cbr 1000 ------- 2 0.0 1.0 38 38
+ 0.412 0 1 cbr 1000 ------- 2 0.0 1.0 39 39
- 0.412 0 1 cbr 1000 ------- 2 0.0 1.0 39 39
r 0.42 0 1 cbr 1000 ------- 2 0.0 1.0 39 39
+ 0.42 0 1 cbr 1000 ------- 2 0.0 1.0 40 40
- 0.42 0 1 cbr 1000 ------- 2 0.0 1.0 40 40
r 0.428 0 1 cbr 1000 ------- 2 0.0 1.0 40 40
+ 0.428 0 1 cbr 1000 ------- 2 0.0 1.0 41 41
- 0.428 0 1 cbr 1000 ------- 2 0.0 1.0 41 41
r 0.436 0 1 cbr 1000 ------- 2 0.0 1.0 41 41
+ 0.436 0 1 cbr 1000 ------- 2 0.0 1.0 42 42
- 0.436 0 1 cbr 1000 ------- 2 0.0 1.0 42 42
r 0.444 0 1 cbr 1000 ------- 2 0.0 1.0 42 42
+ 0.444 0 1 cbr 1000 ------- 2 0.0 1.0 43 43
- 0.444 0 1 cbr 1000 ------- 2 0.0 1.0 43 43
r 0.452 0 1 cbr 1000 ------- 2 0.0 1.0 43 43
+ 0.452 0 1 cbr 1000 ------- 2 0.0 1.0 44 44
- 0.452 0 1 cbr 1000 ------- 2 0.0 1.0 44 44
r 0.46 0 1 cbr 1000 ------- 2 0.0 1.0 44 44
+ 0.46 0 1 cbr 1000 ------- 2 0.0 1.0 45 45
- 0.46 0 1 cbr 1000 ------- 2 0.0 1.0 45 45
r 0.468 0 1 cbr 1000 ------- 2 0.0 1.0 45 45
+ 0.468 0 1 cbr 1000 ------- 2 0.0 1.0 46 46
- 0.468 0 1 cbr 1000 ------- 2 0.0 1.0 46 46
r 0.476 0 1 cbr 1000 ------- 2 0.0 1.0 46 46
+ 0.476 0 1 cbr 1000 ------- 2 0.0 1.0 47 47
- 0.476 0 1 cbr 1000 ------- 2 0.0 1.0 47 47
r 0.484 0 1 cbr 1000 ------- 2 0.0 1.0 47 47
+ 0.484 0 1 cbr 1000 ------- 2 0.0 1.0 48 48
- 0.484 0 1 cbr 1000 ------- 2 0.0 1.0 48 48
r 0.492 0 1 cbr 1000 ------- 2 0.0 1.0 48 48
+ 0.492 0 1 cbr 1000 ------- 2 0.0 1.0 49 49
- 0.492 0 1 cbr 1000 ------- 2 0.0 1.0 49 49
r 0.5 0 1 cbr 1000 ------- 2 0.0 1.0 49 49
+ 0.5 0 1 cbr 1000 ------- 2 0.0 1.0 50 50
- 0.5 0 1 cbr 1000 ------- 2 0.0 1.0 50 50
r 0.508 0 1 cbr 1000 ------- 2 0.0 1.0 50 50
+ 0.508 0 1 cbr 1000 ------- 2 0.0 1.0 51 51
- 0.508 0 1 cbr 1000 ------- 2 0.0 1.0 51 51
r 0.516 0 1 cbr 1000 ------- 2 0.0 1.0 51 51
+ 0.516 0 1 cbr 1000 ------- 2 0.0 1.0 52 52
- 0.516 0 1 cbr 1000 ------- 2 0.0 1.0 52 52
r 0.524 0 1 cbr 1000 ------- 2 0.0 1.0 52 52
+ 0.524 0 1 cbr 1000 ------- 2 0.0 1.0 53 53
- 0.524 0 1 cbr 1000 ------- 2 0.0 1.0 53 53
r 0.532 0 1 cbr 1000 ------- 2 0.0 1.0 53 53
+ 0.532 0 1 cbr 1000 ------- 2 0.0 1.0 54 54
- 0.532 0 1 cbr 1000 ------- 2 0.0 1.0 54 54
r 0.54 0 1 cbr 1000 ------- 2 0.0 1.0 54 54
+ 0.54 0 1 cbr 1000 ------- 2 0.0 1.0 55 55
- 0.54 0 1 cbr 1000 ------- 2 0.0 1.0 55 55
r 0.548 0 1 cbr 1000 ------- 2 0.0 1.0 55 55
+ 0.548 0 1 cbr 1000 ------- 2 0.0 1.0 56 56
- 0.548 0 1 cbr 1000 ------- 2 0.0 1.0 56 56
r 0.556 0 1 cbr 1000 ------- 2 0.0 1.0 56 56
+ 0.556 0 1 cbr 1000 ------- 2 0.0 1.0 57 57
- 0.556 0 1 cbr 1000 ------- 2 0.0 1.0 57 57
r 0.564 0 1 cbr 1000 ------- 2 0.0 1.0 57 57
+ 0.564 0 1 cbr 1000 ------- 2 0.0 1.0 58 58
- 0.564 0 1 cbr 1000 ------- 2 0.0 1.0 58 58
r 0.572 0 1 cbr 1000 ------- 2 0.0 1.0 58 58
+ 0.572 0 1 cbr 1000 ------- 2 0.0 1.0 59 59
- 0.572 0 1 cbr 1000 ------- 2 0.0 1.0 59 59
r 0.58 0 1 cbr 1000 ------- 2 0.0 1.0 59 59
+ 0.58 0 1 cbr 1000 ------- 2 0.0 1.0 60 60
- 0.58 0 1 cbr 1000 ------- 2 0.0 1.0 60 60
r 0.588 0 1 cbr 1000 ------- 2 0.0 1.0 60 60
+ 0.588 0 1 cbr 1000 ------- 2 0.0 1.0 61 61
- 0.588 0 1 cbr 1000 ------- 2 0.0 1.0 61 61
r 0.596 0 1 cbr 1000 ------- 2 0.0 1.0 61 61
+ 0.596 0 1 cbr 1000 ------- 2 0.0 1.0 62 62
- 0.596 0 1 cbr 1000 ------- 2 0.0 1.0 62 62
r 0.604 0 1 cbr 1000 ------- 2 0.0 1.0 62 62
+ 0.604 0 1 cbr 1000 ------- 2 0.0 1.0 63 63
- 0.604 0 1 cbr 1000 ------- 2 0.0 1.0 63 63
r 0.612 0 1 cbr 1000 ------- 2 0.0 1.0 63 63
+ 0.612 0 1 cbr 1000 ------- 2 0.0 1.0 64 64
- 0.612 0 1 cbr 1000 ------- 2 0.0 1.0 64 64
r 0.62 0 1 cbr 1000 ------- 2 0.0 1.0 64 64
+ 0.62 0 1 cbr 1000 ------- 2 0.0 1.0 65 65
- 0.62 0 1 cbr 1000 ------- 2 0.0 1.0 65 65
r 0.628 0 1 cbr 1000 ------- 2 0.0 1.0 65 65
+ 0.628 0 1 cbr 1000 ------- 2 0.0 1.0 66 66
- 0.628 0 1 cbr 1000 ------- 2 0.0 1.0 66 66
r 0.636 0 1 cbr 1000 ------- 2 0.0 1.0 66 66
+ 0.636 0 1 cbr 1000 ------- 2 0.0 1.0 67 67
- 0.636 0 1 cbr 1000 ------- 2 0.0 1.0 67 67
r 0.644 0 1 cbr 1000 ------- 2 0.0 1.0 67 67
+ 0.644 0 1 cbr 1000 ------- 2 0.0 1.0 68 68
- 0.644 0 1 cbr 1000 ------- 2 0.0 1.0 68 68
r 0.652 0 1 cbr 1000 ------- 2 0.0 1.0 68 68
+ 0.652 0 1 cbr 1000 ------- 2 0.0 1.0 69 69
- 0.652 0 1 cbr 1000 ------- 2 0.0 1.0 69 69
r 0.66 0 1 cbr 1000 ------- 2 0.0 1.0 69 69
+ 0.66 0 1 cbr 1000 ------- 2 0.0 1.0 70 70
- 0.66 0 1 cbr 1000 ------- 2 0.0 1.0 70 70
r 0.668 0 1 cbr 1000 ------- 2 0.0 1.0 70 70
+ 0.668 0 1 cbr 1000 ------- 2 0.0 1.0 71 71
- 0.668 0 1 cbr 1000 ------- 2 0.0 1.0 71 71
r 0.676 0 1 cbr 1000 ------- 2 0.0 1.0 71 71
+ 0.676 0 1 cbr 1000 ------- 2 0.0 1.0 72 72
- 0.676 0 1 cbr 1000 ------- 2 0.0 1.0 72 72
r 0.684 0 1 cbr 1000 ------- 2 0.0 1.0 72 72
+ 0.684 0 1 cbr 1000 ------- 2 0.0 1.0 73 73
- 0.684 0 1 cbr 1000 ------- 2 0.0 1.0 73 73
r 0.692 0 1 cbr 1000 ------- 2 0.0 1.0 73 73
+ 0.692 0 1 cbr 1000 ------- 2 0.0 1.0 74 74
- 0.692 0 1 cbr 1000 ------- 2 0.0 1.0 74 74
r 0.7 0 1 cbr 1000 ------- 2 0.0 1.0 74 74
+ 0.7 0 1 cbr 1000 ------- 2 0.0 1.0 75 75
- 0.7 0 1 cbr 1000 ------- 2 0.0 1.0 75 75
r 0.708 0 1 cbr 1000 ------- 2 0.0 1.0 75 75
+ 0.708 0 1 cbr 1000 ------- 2 0.0 1.0 76 76
- 0.708 0 1 cbr 1000 ------- 2 0.0 1.0 76 76
r 0.716 0 1 cbr 1000 ------- 2 0.0 1.0 76 76
+ 0.716 0 1 cbr 1000 ------- 2 0.0 1.0 77 77
- 0.716 0 1 cbr 1000 ------- 2 0.0 1.0 77 77
r 0.724 0 1 cbr 1000 ------- 2 0.0 1.0 77 77
+ 0.724 0 1 cbr 1000 ------- 2 0.0 1.0 78 78
- 0.724 0 1 cbr 1000 ------- 2 0.0 1.0 78 78
r 0.732 0 1 cbr 1000 ------- 2 0.0 1.0 78 78
+ 0.732 0 1 cbr 1000 ------- 2 0.0 1.0 79 79
- 0.732 0 1 cbr 1000 ------- 2 0.0 1.0 79 79
r 0.74 0 1 cbr 1000 ------- 2 0.0 1.0 79 79
+ 0.74 0 1 cbr 1000 ------- 2 0.0 1.0 80 80
- 0.74 0 1 cbr 1000 ------- 2 0.0 1.0 80 80
r 0.748 0 1 cbr 1000 ------- 2 0.0 1.0 80 80
+ 0.748 0 1 cbr 1000 ------- 2 0.0 1.0 81 81
- 0.748 0 1 cbr 1000 ------- 2 0.0 1.0 81 81
r 0.756 0 1 cbr 1000 ------- 2 0.0 1.0 81 81
+ 0.756 0 1 cbr 1000 ------- 2 0.0 1.0 82 82
- 0.756 0 1 cbr 1000 ------- 2 0.0 1.0 82 82
r 0.764 0 1 cbr 1000 ------- 2 0.0 1.0 82 82
+ 0.764 0 1 cbr 1000 ------- 2 0.0 1.0 83 83
- 0.764 0 1 cbr 1000 ------- 2 0.0 1.0 83 83
r 0.772 0 1 cbr 1000 ------- 2 0.0 1.0 83 83
+ 0.772 0 1 cbr 1000 ------- 2 0.0 1.0 84 84
- 0.772 0 1 cbr 1000 ------- 2 0.0 1.0 84 84
r 0.78 0 1 cbr 1000 ------- 2 0.0 1.0 84 84
+ 0.78 0 1 cbr 1000 ------- 2 0.0 1.0 85 85
- 0.78 0 1 cbr 1000 ------- 2 0.0 1.0 85 85
r 0.788 0 1 cbr 1000 ------- 2 0.0 1.0 85 85
+ 0.788 0 1 cbr 1000 ------- 2 0.0 1.0 86 86
- 0.788 0 1 cbr 1000 ------- 2 0.0 1.0 86 86
r 0.796 0 1 cbr 1000 ------- 2 0.0 1.0 86 86
+ 0.796 0 1 cbr 1000 ------- 2 0.0 1.0 87 87
- 0.796 0 1 cbr 1000 ------- 2 0.0 1.0 87 87
r 0.804 0 1 cbr 1000 ------- 2 0.0 1.0 87 87
+ 0.804 0 1 cbr 1000 ------- 2 0.0 1.0 88 88
- 0.804 0 1 cbr 1000 ------- 2 0.0 1.0 88 88
r 0.812 0 1 cbr 1000 ------- 2 0.0 1.0 88 88
+ 0.812 0 1 cbr 1000 ------- 2 0.0 1.0 89 89
- 0.812 0 1 cbr 1000 ------- 2 0.0 1.0 89 89
r 0.82 0 1 cbr 1000 ------- 2 0.0 1.0 89 89
+ 0.82 0 1 cbr 1000 ------- 2 0.0 1.0 90 90
- 0.82 0 1 cbr 1000 ------- 2 0.0 1.0 90 90
r 0.828 0 1 cbr 1000 ------- 2 0.0 1.0 90 90
+ 0.828 0 1 cbr 1000 ------- 2 0.0 1.0 91 91
- 0.828 0 1 cbr 1000 ------- 2 0.0 1.0 91 91
r 0.836 0 1 cbr 1000 ------- 2 0.0 1.0 91 91
+ 0.836 0 1 cbr 1000 ------- 2 0.0 1.0 92 92
- 0.836 0 1 cbr 1000 ------- 2 0.0 1.0 92 92
r 0.844 0 1 cbr 1000 ------- 2 0.0 1.0 92 92
+ 0.844 0 1 cbr 1000 ------- 2 0.0 1.0 93 93
- 0.844 0 1 cbr 1000 ------- 2 0.0 1.0 93 93
r 0.852 0 1 cbr 1000 ------- 2 0.0 1.0 93 93
+ 0.852 0 1 cbr 1000 ------- 2 0.0 1.0 94 94
- 0.852 0 1 cbr 1000 ------- 2 0.0 1.0 94 94
r 0.86 0 1 cbr 1000 ------- 2 0.0 1.0 94 94
+ 0.86 0 1 cbr 1000 ------- 2 0.0 1.0 95 95
- 0.86 0 1 cbr 1000 ------- 2 0.0 1.0 95 95
r 0.868 0 1 cbr 1000 ------- 2 0.0 1.0 95 95
+ 0.868 0 1 cbr 1000 ------- 2 0.0 1.0 96 96
- 0.868 0 1 cbr 1000 ------- 2 0.0 1.0 96 96
r 0.876 0 1 cbr 1000 ------- 2 0.0 1.0 96 96
+ 0.876 0 1 cbr 1000 ------- 2 0.0 1.0 97 97
- 0.876 0 1 cbr 1000 ------- 2 0.0 1.0 97 97
r 0.884 0 1 cbr 1000 ------- 2 0.0 1.0 97 97
+ 0.884 0 1 cbr 1000 ------- 2 0.0 1.0 98 98
- 0.884 0 1 cbr 1000 ------- 2 0.0 1.0 98 98
r 0.892 0 1 cbr 1000 ------- 2 0.0 1.0 98 98
+ 0.892 0 1 cbr 1000 ------- 2 0.0 1.0 99 99
- 0.892 0 1 cbr 1000 ------- 2 0.0 1.0 99 99
r 0.9 0 1 cbr 1000 ------- 2 0.0 1.0 99 99
+ 0.9 0 1 cbr 1000 ------- 2 0.0 1.0 100 100
- 0.9 0 1 cbr 1000 ------- 2 0.0 1.0 100 100
r 0.908 0 1 cbr 1000 ------- 2 0.0 1.0 100 100
+ 0.908 0 1 cbr 1000 ------- 2 0.0 1.0 101 101
- 0.908 0 1 cbr 1000 ------- 2 0.0 1.0 101 101
r 0.916 0 1 cbr 1000 ------- 2 0.0 1.0 101 101
+ 0.916 0 1 cbr 1000 ------- 2 0.0 1.0 102 102
- 0.916 0 1 cbr 1000 ------- 2 0.0 1.0 102 102
r 0.924 0 1 cbr 1000 ------- 2 0.0 1.0 102 102
+ 0.924 0 1 cbr 1000 ------- 2 0.0 1.0 103 103
- 0.924 0 1 cbr 1000 ------- 2 0.0 1.0 103 103
r 0.932 0 1 cbr 1000 ------- 2 0.0 1.0 103 103
+ 0.932 0 1 cbr 1000 ------- 2 0.0 1.0 104 104
- 0.932 0 1 cbr 1000 ------- 2 0.0 1.0 104 104
r 0.94 0 1 cbr 1000 ------- 2 0.0 1.0 104 104
+ 0.94 0 1 cbr 1000 ------- 2 0.0 1.0 105 105
- 0.94 0 1 cbr 1000 ------- 2 0.0 1.0 105 105
r 0.948 0 1 cbr 1000 ------- 2 0.0 1.0 105 105
+ 0.948 0 1 cbr 1000 ------- 2 0.0 1.0 106 106
- 0.948 0 1 cbr 1000 ------- 2 0.0 1.0 106 106
r 0.956 0 1 cbr 1000 ------- 2 0.0 1.0 106 106
+ 0.956 0 1 cbr 1000 ------- 2 0.0 1.0 107 107
- 0.956 0 1 cbr 1000 ------- 2 0.0 1.0 107 107
r 0.964 0 1 cbr 1000 ------- 2 0.0 1.0 107 107
+ 0.964 0 1 cbr 1000 ------- 2 0.0 1.0 108 108
- 0.964 0 1 cbr 1000 ------- 2 0.0 1.0 108 108
r 0.972 0 1 cbr 1000 ------- 2 0.0 1.0 108 108
+ 0.972 0 1 cbr 1000 ------- 2 0.0 1.0 109 109
- 0.972 0 1 cbr 1000 ------- 2 0.0 1.0 109 109
r 0.98 0 1 cbr 1000 ------- 2 0.0 1.0 109 109
+ 0.98 0 1 cbr 1000 ------- 2 0.0 1.0 110 110
- 0.98 0 1 cbr 1000 ------- 2 0.0 1.0 110 110
r 0.988 0 1 cbr 1000 ------- 2 0.0 1.0 110 110
+ 0.988 0 1 cbr 1000 ------- 2 0.0 1.0 111 111
- 0.988 0 1 cbr 1000 ------- 2 0.0 1.0 111 111
r 0.996 0 1 cbr 1000 ------- 2 0.0 1.0 111 111
+ 0.996 0 1 cbr 1000 ------- 2 0.0 1.0 112 112
- 0.996 0 1 cbr 1000 ------- 2 0.0 1.0 112 112
r 1.004 0 1 cbr 1000 ------- 2 0.0 1.0 112 112
+ 1.004 0 1 cbr 1000 ------- 2 0.0 1.0 113 113
- 1.004 0 1 cbr 1000 ------- 2 0.0 1.0 113 113
r 1.012 0 1 cbr 1000 ------- 2 0.0 1.0 113 113
+ 1.012 0 1 cbr 1000 ------- 2 0.0 1.0 114 114
- 1.012 0 1 cbr 1000 ------- 2 0.0 1.0 114 114
r 1.02 0 1 cbr 1000 ------- 2 0.0 1.0 114 114
+ 1.02 0 1 cbr 1000 ------- 2 0.0 1.0 115 115
- 1.02 0 1 cbr 1000 ------- 2 0.0 1.0 115 115
r 1.028 0 1 cbr 1000 ------- 2 0.0 1.0 115 115
+ 1.028 0 1 cbr 1000 ------- 2 0.0 1.0 116 116
- 1.028 0 1 cbr 1000 ------- 2 0.0 1.0 116 116
r 1.036 0 1 cbr 1000 ------- 2 0.0 1.0 116 116
+ 1.036 0 1 cbr 1000 ------- 2 0.0 1.0 117 117
- 1.036 0 1 cbr 1000 ------- 2 0.0 1.0 117 117
r 1.044 0 1 cbr 1000 ------- 2 0.0 1.0 117 117
+ 1.044 0 1 cbr 1000 ------- 2 0.0 1.0 118 118
- 1.044 0 1 cbr 1000 ------- 2 0.0 1.0 118 118
r 1.052 0 1 cbr 1000 ------- 2 0.0 1.0 118 118
+ 1.052 0 1 cbr 1000 ------- 2 0.0 1.0 119 119
- 1.052 0 1 cbr 1000 ------- 2 0.0 1.0 119 119
r 1.06 0 1 cbr 1000 ------- 2 0.0 1.0 119 119
+ 1.06 0 1 cbr 1000 ------- 2 0.0 1.0 120 120
- 1.06 0 1 cbr 1000 ------- 2 0.0 1.0 120 120
r 1.068 0 1 cbr 1000 ------- 2 0.0 1.0 120 120
+ 1.068 0 1 cbr 1000 ------- 2 0.0 1.0 121 121
- 1.068 0 1 cbr 1000 ------- 2 0.0 1.0 121 121
r 1.076 0 1 cbr 1000 ------- 2 0.0 1.0 121 121
+ 1.076 0 1 cbr 1000 ------- 2 0.0 1.0 122 122
- 1.076 0 1 cbr 1000 ------- 2 0.0 1.0 122 122
r 1.084 0 1 cbr 1000 ------- 2 0.0 1.0 122 122
+ 1.084 0 1 cbr 1000 ------- 2 0.0 1.0 123 123
- 1.084 0 1 cbr 1000 ------- 2 0.0 1.0 123 123
r 1.092 0 1 cbr 1000 ------- 2 0.0 1.0 123 123
+ 1.092 0 1 cbr 1000 ------- 2 0.0 1.0 124 124
- 1.092 0 1 cbr 1000 ------- 2 0.0 1.0 124 124
r 1.1 0 1 cbr 1000 ------- 2 0.0 1.0 124 124
+ 1.1 0 1 cbr 1000 ------- 2 0.0 1.0 125 125
- 1.1 0 1 cbr 1000 ------- 2 0.0 1.0 125 125
r 1.108 0 1 cbr 1000 ------- 2 0.0 1.0 125 125
+ 1.108 0 1 cbr 1000 ------- 2 0.0 1.0 126 126
- 1.108 0 1 cbr 1000 ------- 2 0.0 1.0 126 126
r 1.116 0 1 cbr 1000 ------- 2 0.0 1.0 126 126
+ 1.116 0 1 cbr 1000 ------- 2 0.0 1.0 127 127
- 1.116 0 1 cbr 1000 ------- 2 0.0 1.0 127 127
r 1.124 0 1 cbr 1000 ------- 2 0.0 1.0 127 127
+ 1.124 0 1 cbr 1000 ------- 2 0.0 1.0 128 128
- 1.124 0 1 cbr 1000 ------- 2 0.0 1.0 128 128
r 1.132 0 1 cbr 1000 ------- 2 0.0 1.0 128 128
+ 1.132 0 1 cbr 1000 ------- 2 0.0 1.0 129 129
- 1.132 0 1 cbr 1000 ------- 2 0.0 1.0 129 129
r 1.14 0 1 cbr 1000 ------- 2 0.0 1.0 129 129
+ 1.14 0 1 cbr 1000 ------- 2 0.0 1.0 130 130
- 1.14 0 1 cbr 1000 ------- 2 0.0 1.0 130 130
r 1.148 0 1 cbr 1000 ------- 2 0.0 1.0 130 130
+ 1.148 0 1 cbr 1000 ------- 2 0.0 1.0 131 131
- 1.148 0 1 cbr 1000 ------- 2 0.0 1.0 131 131
r 1.156 0 1 cbr 1000 ------- 2 0.0 1.0 131 131
+ 1.156 0 1 cbr 1000 ------- 2 0.0 1.0 132 132
- 1.156 0 1 cbr 1000 ------- 2 0.0 1.0 132 132
r 1.164 0 1 cbr 1000 ------- 2 0.0 1.0 132 132
+ 1.164 0 1 cbr 1000 ------- 2 0.0 1.0 133 133
- 1.164 0 1 cbr 1000 ------- 2 0.0 1.0 133 133
r 1.172 0 1 cbr 1000 ------- 2 0.0 1.0 133 133
+ 1.172 0 1 cbr 1000 ------- 2 0.0 1.0 134 134
- 1.172 0 1 cbr 1000 ------- 2 0.0 1.0 134 134
r 1.18 0 1 cbr 1000 ------- 2 0.0 1.0 134 134
+ 1.18 0 1 cbr 1000 ------- 2 0.0 1.0 135 135
- 1.18 0 1 cbr 1000 ------- 2 0.0 1.0 135 135
r 1.188 0 1 cbr 1000 ------- 2 0.0 1.0 135 135
+ 1.188 0 1 cbr 1000 ------- 2 0.0 1.0 136 136
- 1.188 0 1 cbr 1000 ------- 2 0.0 1.0 136 136
r 1.196 0 1 cbr 1000 ------- 2 0.0 1.0 136 136
+ 1.196 0 1 cbr 1000 ------- 2 0.0 1.0 137 137
- 1.196 0 1 cbr 1000 ------- 2 0.0 1.0 137 137
r 1.204 0 1 cbr 1000 ------- 2 0.0 1.0 137 137
+ 1.204 0 1 cbr 1000 ------- 2 0.0 1.0 138 138
- 1.204 0 1 cbr 1000 ------- 2 0.0 1.0 138 138
r 1.212 0 1 cbr 1000 ------- 2 0.0 1.0 138 138
+ 1.212 0 1 cbr 1000 ------- 2 0.0 1.0 139 139
- 1.212 0 1 cbr 1000 ------- 2 0.0 1.0 139 139
r 1.22 0 1 cbr 1000 ------- 2 0.0 1.0 139 139
+ 1.22 0 1 cbr 1000 ------- 2 0.0 1.0 140 140
- 1.22 0 1 cbr 1000 ------- 2 0.0 1.0 140 140
r 1.228 0 1 cbr 1000 ------- 2 0.0 1.0 140 140
+ 1.228 0 1 cbr 1000 ------- 2 0.0 1.0 141 141
- 1.228 0 1 cbr 1000 ------- 2 0.0 1.0 141 141
r 1.236 0 1 cbr 1000 ------- 2 0.0 1.0 141 141
+ 1.236 0 1 cbr 1000 ------- 2 0.0 1.0 142 142
- 1.236 0 1 cbr 1000 ------- 2 0.0 1.0 142 142
r 1.244 0 1 cbr 1000 ------- 2 0.0 1.0 142 142
+ 1.244 0 1 cbr 1000 ------- 2 0.0 1.0 143 143
- 1.244 0 1 cbr 1000 ------- 2 0.0 1.0 143 143
r 1.252 0 1 cbr 1000 ------- 2 0.0 1.0 143 143
+ 1.252 0 1 cbr 1000 ------- 2 0.0 1.0 144 144
- 1.252 0 1 cbr 1000 ------- 2 0.0 1.0 144 144
r 1.26 0 1 cbr 1000 ------- 2 0.0 1.0 144 144
+ 1.26 0 1 cbr 1000 ------- 2 0.0 1.0 145 145
- 1.26 0 1 cbr 1000 ------- 2 0.0 1.0 145 145
r 1.268 0 1 cbr 1000 ------- 2 0.0 1.0 145 145
+ 1.268 0 1 cbr 1000 ------- 2 0.0 1.0 146 146
- 1.268 0 1 cbr 1000 ------- 2 0.0 1.0 146 146
r 1.276 0 1 cbr 1000 ------- 2 0.0 1.0 146 146
+ 1.276 0 1 cbr 1000 ------- 2 0.0 1.0 147 147
- 1.276 0 1 cbr 1000 ------- 2 0.0 1.0 147 147
r 1.284 0 1 cbr 1000 ------- 2 0.0 1.0 147 147
+ 1.284 0 1 cbr 1000 ------- 2 0.0 1.0 148 148
- 1.284 0 1 cbr 1000 ------- 2 0.0 1.0 148 148
r 1.292 0 1 cbr 1000 ------- 2 0.0 1.0 148 148
+ 1.292 0 1 cbr 1000 ------- 2 0.0 1.0 149 149
- 1.292 0 1 cbr 1000 ------- 2 0.0 1.0 149 149
r 1.3 0 1 cbr 1000 ------- 2 0.0 1.0 149 149
+ 1.3 0 1 cbr 1000 ------- 2 0.0 1.0 150 150
- 1.3 0 1 cbr 1000 ------- 2 0.0 1.0 150 150
r 1.308 0 1 cbr 1000 ------- 2 0.0 1.0 150 150
+ 1.308 0 1 cbr 1000 ------- 2 0.0 1.0 151 151
- 1.308 0 1 cbr 1000 ------- 2 0.0 1.0 151 151
r 1.316 0 1 cbr 1000 ------- 2 0.0 1.0 151 151
+ 1.316 0 1 cbr 1000 ------- 2 0.0 1.0 152 152
- 1.316 0 1 cbr 1000 ------- 2 0.0 1.0 152 152
r 1.324 0 1 cbr 1000 ------- 2 0.0 1.0 152 152
+ 1.324 0 1 cbr 1000 ------- 2 0.0 1.0 153 153
- 1.324 0 1 cbr 1000 ------- 2 0.0 1.0 153 153
r 1.332 0 1 cbr 1000 ------- 2 0.0 1.0 153 153
+ 1.332 0 1 cbr 1000 ------- 2 0.0 1.0 154 154
- 1.332 0 1 cbr 1000 ------- 2 0.0 1.0 154 154
r 1.34 0 1 cbr 1000 ------- 2 0.0 1.0 154 154
+ 1.34 0 1 cbr 1000 ------- 2 0.0 1.0 155 155
- 1.34 0 1 cbr 1000 ------- 2 0.0 1.0 155 155
r 1.348 0 1 cbr 1000 ------- 2 0.0 1.0 155 155
+ 1.348 0 1 cbr 1000 ------- 2 0.0 1.0 156 156
- 1.348 0 1 cbr 1000 ------- 2 0.0 1.0 156 156
r 1.356 0 1 cbr 1000 ------- 2 0.0 1.0 156 156
+ 1.356 0 1 cbr 1000 ------- 2 0.0 1.0 157 157
- 1.356 0 1 cbr 1000 ------- 2 0.0 1.0 157 157
r 1.364 0 1 cbr 1000 ------- 2 0.0 1.0 157 157
+ 1.364 0 1 cbr 1000 ------- 2 0.0 1.0 158 158
- 1.364 0 1 cbr 1000 ------- 2 0.0 1.0 158 158
r 1.372 0 1 cbr 1000 ------- 2 0.0 1.0 158 158
+ 1.372 0 1 cbr 1000 ------- 2 0.0 1.0 159 159
- 1.372 0 1 cbr 1000 ------- 2 0.0 1.0 159 159
r 1.38 0 1 cbr 1000 ------- 2 0.0 1.0 159 159
+ 1.38 0 1 cbr 1000 ------- 2 0.0 1.0 160 160
- 1.38 0 1 cbr 1000 ------- 2 0.0 1.0 160 160
r 1.388 0 1 cbr 1000 ------- 2 0.0 1.0 160 160
+ 1.388 0 1 cbr 1000 ------- 2 0.0 1.0 161 161
- 1.388 0 1 cbr 1000 ------- 2 0.0 1.0 161 161
r 1.396 0 1 cbr 1000 ------- 2 0.0 1.0 161 161
+ 1.396 0 1 cbr 1000 ------- 2 0.0 1.0 162 162
- 1.396 0 1 cbr 1000 ------- 2 0.0 1.0 162 162
r 1.404 0 1 cbr 1000 ------- 2 0.0 1.0 162 162
+ 1.404 0 1 cbr 1000 ------- 2 0.0 1.0 163 163
- 1.404 0 1 cbr 1000 ------- 2 0.0 1.0 163 163
r 1.412 0 1 cbr 1000 ------- 2 0.0 1.0 163 163
+ 1.412 0 1 cbr 1000 ------- 2 0.0 1.0 164 164
- 1.412 0 1 cbr 1000 ------- 2 0.0 1.0 164 164
r 1.42 0 1 cbr 1000 ------- 2 0.0 1.0 164 164
+ 1.42 0 1 cbr 1000 ------- 2 0.0 1.0 165 165
- 1.42 0 1 cbr 1000 ------- 2 0.0 1.0 165 165
r 1.428 0 1 cbr 1000 ------- 2 0.0 1.0 165 165
+ 1.428 0 1 cbr 1000 ------- 2 0.0 1.0 166 166
- 1.428 0 1 cbr 1000 ------- 2 0.0 1.0 166 166
r 1.436 0 1 cbr 1000 ------- 2 0.0 1.0 166 166
+ 1.436 0 1 cbr 1000 ------- 2 0.0 1.0 167 167
- 1.436 0 1 cbr 1000 ------- 2 0.0 1.0 167 167
r 1.444 0 1 cbr 1000 ------- 2 0.0 1.0 167 167
+ 1.444 0 1 cbr 1000 ------- 2 0.0 1.0 168 168
- 1.444 0 1 cbr 1000 ------- 2 0.0 1.0 168 168
r 1.452 0 1 cbr 1000 ------- 2 0.0 1.0 168 168
+ 1.452 0 1 cbr 1000 ------- 2 0.0 1.0 169 169
- 1.452 0 1 cbr 1000 ------- 2 0.0 1.0 169 169
r 1.46 0 1 cbr 1000 ------- 2 0.0 1.0 169 169
+ 1.46 0 1 cbr 1000 ------- 2 0.0 1.0 170 170
- 1.46 0 1 cbr 1000 ------- 2 0.0 1.0 170 170
r 1.468 0 1 cbr 1000 ------- 2 0.0 1.0 170 170
+ 1.468 0 1 cbr 1000 ------- 2 0.0 1.0 171 171
- 1.468 0 1 cbr 1000 ------- 2 0.0 1.0 171 171
r 1.476 0 1 cbr 1000 ------- 2 0.0 1.0 171 171
+ 1.476 0 1 cbr 1000 ------- 2 0.0 1.0 172 172
- 1.476 0 1 cbr 1000 ------- 2 0.0 1.0 172 172
r 1.484 0 1 cbr 1000 ------- 2 0.0 1.0 172 172
+ 1.484 0 1 cbr 1000 ------- 2 0.0 1.0 173 173
- 1.484 0 1 cbr 1000 ------- 2 0.0 1.0 173 173
r 1.492 0 1 cbr 1000 ------- 2 0.0 1.0 173 173
+ 1.492 0 1 cbr 1000 ------- 2 0.0 1.0 174 174
- 1.492 0 1 cbr 1000 ------- 2 0.0 1.0 174 174
r 1.5 0 1 cbr 1000 ------- 2 0.0 1.0 174 174
+ 1.5 0 1 cbr 1000 ------- 2 0.0 1.0 175 175
- 1.5 0 1 cbr 1000 ------- 2 0.0 1.0 175 175
r 1.508 0 1 cbr 1000 ------- 2 0.0 1.0 175 175
+ 1.508 0 1 cbr 1000 ------- 2 0.0 1.0 176 176
- 1.508 0 1 cbr 1000 ------- 2 0.0 1.0 176 176
r 1.516 0 1 cbr 1000 ------- 2 0.0 1.0 176 176
+ 1.516 0 1 cbr 1000 ------- 2 0.0 1.0 177 177
- 1.516 0 1 cbr 1000 ------- 2 0.0 1.0 177 177
r 1.524 0 1 cbr 1000 ------- 2 0.0 1.0 177 177
+ 1.524 0 1 cbr 1000 ------- 2 0.0 1.0 178 178
- 1.524 0 1 cbr 1000 ------- 2 0.0 1.0 178 178
r 1.532 0 1 cbr 1000 ------- 2 0.0 1.0 178 178
+ 1.532 0 1 cbr 1000 ------- 2 0.0 1.0 179 179
- 1.532 0 1 cbr 1000 ------- 2 0.0 1.0 179 179
r 1.54 0 1 cbr 1000 ------- 2 0.0 1.0 179 179
+ 1.54 0 1 cbr 1000 ------- 2 0.0 1.0 180 180
- 1.54 0 1 cbr 1000 ------- 2 0.0 1.0 180 180
r 1.548 0 1 cbr 1000 ------- 2 0.0 1.0 180 180
+ 1.548 0 1 cbr 1000 ------- 2 0.0 1.0 181 181
- 1.548 0 1 cbr 1000 ------- 2 0.0 1.0 181 181
r 1.556 0 1 cbr 1000 ------- 2 0.0 1.0 181 181
+ 1.556 0 1 cbr 1000 ------- 2 0.0 1.0 182 182
- 1.556 0 1 cbr 1000 ------- 2 0.0 1.0 182 182
r 1.564 0 1 cbr 1000 ------- 2 0.0 1.0 182 182
+ 1.564 0 1 cbr 1000 ------- 2 0.0 1.0 183 183
- 1.564 0 1 cbr 1000 ------- 2 0.0 1.0 183 183
r 1.572 0 1 cbr 1000 ------- 2 0.0 1.0 183 183
+ 1.572 0 1 cbr 1000 ------- 2 0.0 1.0 184 184
- 1.572 0 1 cbr 1000 ------- 2 0.0 1.0 184 184
r 1.58 0 1 cbr 1000 ------- 2 0.0 1.0 184 184
+ 1.58 0 1 cbr 1000 ------- 2 0.0 1.0 185 185
- 1.58 0 1 cbr 1000 ------- 2 0.0 1.0 185 185
r 1.588 0 1 cbr 1000 ------- 2 0.0 1.0 185 185
+ 1.588 0 1 cbr 1000 ------- 2 0.0 1.0 186 186
- 1.588 0 1 cbr 1000 ------- 2 0.0 1.0 186 186
r 1.596 0 1 cbr 1000 ------- 2 0.0 1.0 186 186
+ 1.596 0 1 cbr 1000 ------- 2 0.0 1.0 187 187
- 1.596 0 1 cbr 1000 ------- 2 0.0 1.0 187 187
r 1.604 0 1 cbr 1000 ------- 2 0.0 1.0 187 187
+ 1.604 0 1 cbr 1000 ------- 2 0.0 1.0 188 188
- 1.604 0 1 cbr 1000 ------- 2 0.0 1.0 188 188
r 1.612 0 1 cbr 1000 ------- 2 0.0 1.0 188 188
+ 1.612 0 1 cbr 1000 ------- 2 0.0 1.0 189 189
- 1.612 0 1 cbr 1000 ------- 2 0.0 1.0 189 189
r 1.62 0 1 cbr 1000 ------- 2 0.0 1.0 189 189
+ 1.62 0 1 cbr 1000 ------- 2 0.0 1.0 190 190
- 1.62 0 1 cbr 1000 ------- 2 0.0 1.0 190 190
r 1.628 0 1 cbr 1000 ------- 2 0.0 1.0 190 190
+ 1.628 0 1 cbr 1000 ------- 2 0.0 1.0 191 191
- 1.628 0 1 cbr 1000 ------- 2 0.0 1.0 191 191
r 1.636 0 1 cbr 1000 ------- 2 0.0 1.0 191 191
+ 1.636 0 1 cbr 1000 ------- 2 0.0 1.0 192 192
- 1.636 0 1 cbr 1000 ------- 2 0.0 1.0 192 192
r 1.644 0 1 cbr 1000 ------- 2 0.0 1.0 192 192
+ 1.644 0 1 cbr 1000 ------- 2 0.0 1.0 193 193
- 1.644 0 1 cbr 1000 ------- 2 0.0 1.0 193 193
r 1.652 0 1 cbr 1000 ------- 2 0.0 1.0 193 193
+ 1.652 0 1 cbr 1000 ------- 2 0.0 1.0 194 194
- 1.652 0 1 cbr 1000 ------- 2 0.0 1.0 194 194
r 1.66 0 1 cbr 1000 ------- 2 0.0 1.0 194 194
+ 1.66 0 1 cbr 1000 ------- 2 0.0 1.0 195 195
- 1.66 0 1 cbr 1000 ------- 2 0.0 1.0 195 195
r 1.668 0 1 cbr 1000 ------- 2 0.0 1.0 195 195
+ 1.668 0 1 cbr 1000 ------- 2 0.0 1.0 196 196
- 1.668 0 1 cbr 1000 ------- 2 0.0 1.0 196 196
r 1.676 0 1 cbr 1000 ------- 2 0.0 1.0 196 196
+ 1.676 0 1 cbr 1000 ------- 2 0.0 1.0 197 197
- 1.676 0 1 cbr 1000 ------- 2 0.0 1.0 197 197
r 1.684 0 1 cbr 1000 ------- 2 0.0 1.0 197 197
+ 1.684 0 1 cbr 1000 ------- 2 0.0 1.0 198 198
- 1.684 0 1 cbr 1000 ------- 2 0.0 1.0 198 198
r 1.692 0 1 cbr 1000 ------- 2 0.0 1.0 198 198
+ 1.692 0 1 cbr 1000 ------- 2 0.0 1.0 199 199
- 1.692 0 1 cbr 1000 ------- 2 0.0 1.0 199 199
r 1.7 0 1 cbr 1000 ------- 2 0.0 1.0 199 199
+ 1.7 0 1 cbr 1000 ------- 2 0.0 1.0 200 200
- 1.7 0 1 cbr 1000 ------- 2 0.0 1.0 200 200
r 1.708 0 1 cbr 1000 ------- 2 0.0 1.0 200 200
+ 1.708 0 1 cbr 1000 ------- 2 0.0 1.0 201 201
- 1.708 0 1 cbr 1000 ------- 2 0.0 1.0 201 201
r 1.716 0 1 cbr 1000 ------- 2 0.0 1.0 201 201
+ 1.716 0 1 cbr 1000 ------- 2 0.0 1.0 202 202
- 1.716 0 1 cbr 1000 ------- 2 0.0 1.0 202 202
r 1.724 0 1 cbr 1000 ------- 2 0.0 1.0 202 202
+ 1.724 0 1 cbr 1000 ------- 2 0.0 1.0 203 203
- 1.724 0 1 cbr 1000 ------- 2 0.0 1.0 203 203
r 1.732 0 1 cbr 1000 ------- 2 0.0 1.0 203 203
+ 1.732 0 1 cbr 1000 ------- 2 0.0 1.0 204 204
- 1.732 0 1 cbr 1000 ------- 2 0.0 1.0 204 204
r 1.74 0 1 cbr 1000 ------- 2 0.0 1.0 204 204
+ 1.74 0 1 cbr 1000 ------- 2 0.0 1.0 205 205
- 1.74 0 1 cbr 1000 ------- 2 0.0 1.0 205 205
r 1.748 0 1 cbr 1000 ------- 2 0.0 1.0 205 205
+ 1.748 0 1 cbr 1000 ------- 2 0.0 1.0 206 206
- 1.748 0 1 cbr 1000 ------- 2 0.0 1.0 206 206
r 1.756 0 1 cbr 1000 ------- 2 0.0 1.0 206 206
+ 1.756 0 1 cbr 1000 ------- 2 0.0 1.0 207 207
- 1.756 0 1 cbr 1000 ------- 2 0.0 1.0 207 207
r 1.764 0 1 cbr 1000 ------- 2 0.0 1.0 207 207
+ 1.764 0 1 cbr 1000 ------- 2 0.0 1.0 208 208
- 1.764 0 1 cbr 1000 ------- 2 0.0 1.0 208 208
r 1.772 0 1 cbr 1000 ------- 2 0.0 1.0 208 208
+ 1.772 0 1 cbr 1000 ------- 2 0.0 1.0 209 209
- 1.772 0 1 cbr 1000 ------- 2 0.0 1.0 209 209
r 1.78 0 1 cbr 1000 ------- 2 0.0 1.0 209 209
+ 1.78 0 1 cbr 1000 ------- 2 0.0 1.0 210 210
- 1.78 0 1 cbr 1000 ------- 2 0.0 1.0 210 210
r 1.788 0 1 cbr 1000 ------- 2 0.0 1.0 210 210
+ 1.788 0 1 cbr 1000 ------- 2 0.0 1.0 211 211
- 1.788 0 1 cbr 1000 ------- 2 0.0 1.0 211 211
r 1.796 0 1 cbr 1000 ------- 2 0.0 1.0 211 211
+ 1.796 0 1 cbr 1000 ------- 2 0.0 1.0 212 212
- 1.796 0 1 cbr 1000 ------- 2 0.0 1.0 212 212
r 1.804 0 1 cbr 1000 ------- 2 0.0 1.0 212 212
+ 1.804 0 1 cbr 1000 ------- 2 0.0 1.0 213 213
- 1.804 0 1 cbr 1000 ------- 2 0.0 1.0 213 213
r 1.812 0 1 cbr 1000 ------- 2 0.0 1.0 213 213
+ 1.812 0 1 cbr 1000 ------- 2 0.0 1.0 214 214
- 1.812 0 1 cbr 1000 ------- 2 0.0 1.0 214 214
r 1.82 0 1 cbr 1000 ------- 2 0.0 1.0 214 214
+ 1.82 0 1 cbr 1000 ------- 2 0.0 1.0 215 215
- 1.82 0 1 cbr 1000 ------- 2 0.0 1.0 215 215
r 1.828 0 1 cbr 1000 ------- 2 0.0 1.0 215 215
+ 1.828 0 1 cbr 1000 ------- 2 0.0 1.0 216 216
- 1.828 0 1 cbr 1000 ------- 2 0.0 1.0 216 216
r 1.836 0 1 cbr 1000 ------- 2 0.0 1.0 216 216
+ 1.836 0 1 cbr 1000 ------- 2 0.0 1.0 217 217
- 1.836 0 1 cbr 1000 ------- 2 0.0 1.0 217 217
r 1.844 0 1 cbr 1000 ------- 2 0.0 1.0 217 217
+ 1.844 0 1 cbr 1000 ------- 2 0.0 1.0 218 218